ITEM: TIMESTEP
1046500
ITEM: NUMBER OF ATOMS
1520
ITEM: BOX BOUNDS pp pp pp
-6.9326749999999997e+00 6.9326749999999997e+00
-6.9326749999999997e+00 6.9326749999999997e+00
-6.9326749999999997e+00 6.9326749999999997e+00
ITEM: ATOMS id type xs ys zs
603 2 0.218874 0.0417163 0.0224655
605 4 0.207518 0.0721604 0.0381044
1451 4 0.323028 0.996804 0.0587675
785 4 0.486638 0.839808 0.41518
560 4 0.468318 0.0455423 0.0420634
1354 4 0.446533 0.0743025 0.040864
558 2 0.465857 0.00963757 0.0397718
592 4 0.207193 0.0826331 0.0694682
591 2 0.224655 0.113586 0.0755833
593 4 0.242117 0.144539 0.0816996
1253 4 0.370981 0.139119 0.0786808
634 4 0.340258 0.138713 0.0610609
854 4 0.101781 0.266679 0.0760031
533 4 0.34233 0.250144 0.0645079
635 4 0.350227 0.209787 0.0681878
633 2 0.345242 0.17425 0.0646247
583 4 0.440698 0.223255 0.0470685
1138 4 0.471485 0.221259 0.0313323
852 2 0.084302 0.292063 0.0947265
531 2 0.325907 0.249208 0.0324178
532 4 0.309482 0.248271 0.000327089
967 4 0.273155 0.37279 0.100218
753 2 0.0559556 0.360941 0.0627849
755 4 0.0403125 0.374628 0.0333161
352 4 0.0186844 0.40445 0.0178352
24 3 0.226895 0.378501 0.0285239
22 3 0.212557 0.3273 0.017977
23 3 0.178964 0.367578 0.00427719
21 1 0.211077 0.358515 0.00683767
968 4 0.234474 0.343796 0.0466938
966 2 0.253815 0.358294 0.073456
901 4 0.380291 0.362496 0.0577867
900 2 0.365488 0.356321 0.0254889
105 2 0.0420731 0.499351 0.0155372
706 4 0.149979 0.445435 0.0437893
707 4 0.0832052 0.465011 0.0627525
705 2 0.116593 0.455223 0.0532712
107 4 0.0520674 0.487123 0.0479565
954 2 0.32537 0.473052 0.0173819
956 4 0.335387 0.491616 0.0466303
869 4 0.478824 0.48677 0.0871184
1501 4 0.190968 0.532011 0.0360662
1500 2 0.20367 0.56359 0.0479764
286 4 0.215469 0.513363 0.0197973
1338 2 0.389799 0.517653 0.0355559
1340 4 0.367347 0.489433 0.0356415
1339 4 0.412252 0.545871 0.0354706
85 4 0.449543 0.566241 0.0590757
84 2 0.469431 0.536184 0.057885
86 4 0.489319 0.506126 0.0566947
1369 4 0.0775788 0.646542 0.0529891
1232 4 0.0597009 0.644896 0.0801289
1502 4 0.216372 0.595169 0.0598866
1335 2 0.22647 0.645693 0.0595183
1337 4 0.245111 0.6164 0.0692559
764 4 0.0234986 0.670684 0.0691864
1368 2 0.0850877 0.665469 0.0232281
575 4 0.149814 0.749386 0.0376304
1336 4 0.207828 0.674986 0.04978
573 2 0.170532 0.721273 0.0286412
574 4 0.19125 0.693159 0.0196521
617 4 0.147106 0.772661 0.0083619
793 4 0.178333 0.823269 0.0205589
146 4 0.205947 0.806307 0.0374973
144 2 0.205682 0.786589 0.0676896
703 4 0.418484 0.810379 0.0270104
704 4 0.457189 0.824419 0.0862264
702 2 0.437837 0.8174 0.0566182
1017 2 0.000950992 0.872617 0.0736899
792 2 0.206494 0.843911 0.0115463
711 2 0.460426 0.908327 0.0196962
712 4 0.450085 0.876 0.00751639
377 4 0.437582 0.842576 0.00855014
168 2 0.0513322 0.951961 0.103802
169 4 0.0498803 0.983505 0.121218
1166 4 0.235132 0.95588 0.0207765
1164 2 0.264473 0.975608 0.0278748
1165 4 0.293814 0.995335 0.0349731
1450 4 0.366913 0.953464 0.0213856
1449 2 0.344971 0.975134 0.0400765
713 4 0.470768 0.940655 0.0318751
559 4 0.463395 0.973734 0.0374808
383 4 0.0581774 0.0518291 0.157537
858 2 0.38399 0.0172496 0.170912
316 4 0.449914 0.0196311 0.144735
315 2 0.469949 0.991551 0.155245
382 4 0.104591 0.102724 0.136157
381 2 0.0813843 0.0772768 0.146847
1252 4 0.420008 0.100922 0.115272
1251 2 0.395494 0.12002 0.0969764
1204 4 0.406508 0.228382 0.124524
1203 2 0.41404 0.20743 0.15289
584 4 0.44046 0.22715 0.119085
582 2 0.440579 0.225203 0.0830773
754 4 0.0715987 0.347255 0.0922532
853 4 0.0668234 0.317447 0.113451
670 4 0.199743 0.336959 0.117481
671 4 0.247255 0.368365 0.161729
669 2 0.223499 0.352662 0.139606
868 4 0.457436 0.420001 0.104034
64 4 0.460827 0.393118 0.129578
1156 4 0.0280195 0.450626 0.130095
391 4 0.044052 0.483803 0.144234
390 2 0.0721765 0.487328 0.166527
867 2 0.46813 0.453385 0.0955758
224 4 0.231527 0.585648 0.172011
1290 2 0.372536 0.558659 0.155163
1292 4 0.336505 0.557315 0.155775
517 4 0.0159896 0.668047 0.145512
1231 4 0.108613 0.662646 0.130071
1230 2 0.0841573 0.653771 0.105099
1058 4 0.255146 0.587295 0.143433
1057 4 0.293589 0.64535 0.124628
1056 2 0.274367 0.616323 0.13403
763 4 0.0292503 0.742522 0.0663645
762 2 0.0263748 0.706603 0.0677752
1259 4 0.132566 0.683333 0.146241
257 4 0.256057 0.727411 0.133107
145 4 0.205416 0.766872 0.0978824
256 4 0.307933 0.771 0.1084
255 2 0.281995 0.749206 0.120753
835 4 0.398449 0.813613 0.132451
228 2 0.0463713 0.854449 0.132799
1019 4 0.0263723 0.865632 0.098295
229 4 0.0114761 0.847813 0.12658
230 4 0.0812666 0.861085 0.139018
836 4 0.388173 0.883077 0.148904
834 2 0.393312 0.848345 0.140676
313 4 0.347694 0.876798 0.150814
170 4 0.0527842 0.920418 0.0863865
860 4 0.349726 0.00942483 0.178985
317 4 0.489985 0.963471 0.165755
1234 4 0.0325279 0.0502717 0.183907
898 4 0.0440661 0.0614995 0.213658
897 2 0.0734913 0.0528735 0.232634
1233 2 0.00512253 0.0337407 0.200524
342 2 0.150287 0.0638742 0.178601
344 4 0.163102 0.0474769 0.208051
1346 4 0.225859 0.0783223 0.246356
1323 2 0.310885 0.0728721 0.206873
1325 4 0.300842 0.0749943 0.172304
1324 4 0.320927 0.0707501 0.241443
859 4 0.418253 0.0250742 0.16284
903 2 0.0089526 0.135428 0.16837
904 4 0.00500534 0.10467 0.149962
905 4 0.0129009 0.166185 0.186777
343 4 0.137471 0.080272 0.149151
1124 4 0.481687 0.119282 0.162427
803 4 0.998718 0.249524 0.190994
1045 4 0.0667354 0.157924 0.242558
801 2 0.0203648 0.220684 0.190831
802 4 0.0420116 0.191842 0.190667
274 4 0.268994 0.228667 0.231976
1205 4 0.421571 0.186477 0.181256
1123 4 0.49563 0.184708 0.189384
1122 2 0.488658 0.151995 0.175905
1301 4 0.209521 0.325926 0.202518
1299 2 0.232507 0.322126 0.230043
65 4 0.455747 0.407923 0.199982
63 2 0.458287 0.400521 0.16478
734 4 0.464103 0.420382 0.231757
392 4 0.100301 0.490853 0.188821
1413 2 0.0361926 0.55166 0.196934
1414 4 0.0166964 0.570514 0.173168
1003 4 0.0879541 0.553468 0.231333
1415 4 0.0556911 0.532809 0.2207
1002 2 0.118945 0.571392 0.235662
1291 4 0.408567 0.560002 0.154552
166 4 0.491909 0.541345 0.221482
167 4 0.433447 0.557912 0.182628
165 2 0.462678 0.549628 0.202056
223 4 0.195103 0.592572 0.233874
222 2 0.213315 0.58911 0.202943
1274 4 0.302317 0.666758 0.204298
1089 2 0.395403 0.630066 0.225494
1091 4 0.410148 0.610446 0.199074
518 4 0.0303791 0.683018 0.21458
516 2 0.0231848 0.675532 0.180046
679 4 0.0545048 0.696779 0.23648
678 2 0.0886189 0.708294 0.238484
1257 2 0.140695 0.698881 0.177745
1258 4 0.148825 0.714437 0.20925
161 4 0.135395 0.751591 0.218607
680 4 0.122731 0.719817 0.240491
827 4 0.152488 0.692201 0.243128
667 4 0.161258 0.732448 0.243541
272 4 0.186081 0.706126 0.225095
270 2 0.217038 0.715665 0.209226
271 4 0.247985 0.725203 0.193362
1272 2 0.284483 0.690948 0.18437
1273 4 0.266649 0.71514 0.164442
1090 4 0.380658 0.649686 0.251915
159 2 0.120291 0.770535 0.191887
160 4 0.105187 0.789474 0.165174
81 2 0.0487892 0.910602 0.237269
83 4 0.0207228 0.889727 0.228498
314 4 0.289783 0.87965 0.193707
312 2 0.318738 0.878224 0.172261
512 4 0.17546 0.937735 0.251949
1278 2 0.238131 0.929537 0.217674
1279 4 0.206291 0.924947 0.23397
1280 4 0.269971 0.934127 0.201378
395 4 0.277837 0.967346 0.194617
394 4 0.34804 0.981745 0.202731
393 2 0.312938 0.974545 0.198674
1220 4 0.0365117 0.0925506 0.313964
899 4 0.102918 0.0442478 0.251611
1419 2 0.0829466 0.99326 0.305507
1420 4 0.0980465 0.978413 0.276318
1345 4 0.256515 0.0174712 0.269999
1344 2 0.241187 0.0478965 0.258178
758 4 0.493535 0.0385135 0.287688
1218 2 0.0193616 0.123753 0.319681
1044 2 0.0749435 0.160626 0.277568
1046 4 0.0831509 0.163328 0.312579
417 2 0.0180633 0.201587 0.326732
273 2 0.299662 0.222496 0.249916
884 4 0.171799 0.321792 0.250516
1300 4 0.255491 0.318326 0.25757
275 4 0.33033 0.216326 0.267856
1515 2 0.279024 0.316403 0.293814
1517 4 0.243282 0.320882 0.29211
1516 4 0.314765 0.311922 0.295517
882 2 0.177624 0.334979 0.28357
883 4 0.183449 0.348168 0.316624
732 2 0.474153 0.397747 0.257969
444 2 0.31811 0.491056 0.277198
445 4 0.324757 0.460569 0.25912
446 4 0.311462 0.521543 0.295275
1004 4 0.149937 0.589314 0.23999
826 4 0.142172 0.620849 0.244983
825 2 0.147324 0.656527 0.244053
201 2 0.375558 0.647913 0.304723
203 4 0.34124 0.640018 0.296954
202 4 0.409876 0.655807 0.312492
983 4 0.0734908 0.98483 0.400773
116 4 0.143643 0.714865 0.275696
114 2 0.134722 0.699629 0.307134
830 4 0.182783 0.706404 0.266088
828 2 0.210433 0.690353 0.282788
829 4 0.238076 0.674304 0.299482
1010 4 0.430894 0.729725 0.262926
666 2 0.172867 0.757509 0.266747
668 4 0.184479 0.782567 0.289933
1008 2 0.448026 0.755898 0.280868
1009 4 0.465159 0.78207 0.298809
82 4 0.0768553 0.931477 0.246041
511 4 0.133218 0.99378 0.26857
510 2 0.154339 0.965758 0.26026
479 4 0.006339 0.0178487 0.377683
982 4 0.0302082 0.0104662 0.349091
981 2 0.0518493 0.997648 0.374932
418 4 0.0242989 0.224082 0.354219
1129 4 0.0493565 0.249993 0.366459
1128 2 0.0840911 0.250925 0.376107
1130 4 0.118825 0.251858 0.385755
463 4 0.152922 0.258216 0.394669
462 2 0.160376 0.29226 0.403936
1214 4 0.204076 0.32759 0.406808
1212 2 0.23933 0.32003 0.406136
688 4 0.269296 0.404393 0.411339
43 3 0.470622 0.347038 0.413533
42 3 0.424247 0.373316 0.403674
1296 2 0.0278512 0.431327 0.375306
1298 4 0.0443692 0.450271 0.349447
373 4 0.116023 0.436627 0.421849
689 4 0.23788 0.428665 0.351126
687 2 0.253588 0.416529 0.381233
1329 2 0.42954 0.503595 0.372287
1331 4 0.423507 0.468636 0.365818
1297 4 0.0113331 0.412383 0.401165
551 4 0.122824 0.544422 0.384108
549 2 0.143783 0.528587 0.359402
550 4 0.164741 0.512752 0.334696
800 4 0.265105 0.553321 0.402461
1330 4 0.435574 0.538555 0.378756
1466 4 0.453078 0.616334 0.374616
1464 2 0.458234 0.648049 0.358245
1475 4 0.135056 0.714654 0.356553
115 4 0.1258 0.684391 0.338577
1473 2 0.151734 0.73082 0.384138
1465 4 0.463389 0.679763 0.341874
1120 4 0.47993 0.68314 0.375246
1119 2 0.484339 0.717291 0.385956
346 4 0.159465 0.840106 0.342486
345 2 0.143028 0.816134 0.363831
347 4 0.126592 0.792162 0.385175
1474 4 0.168411 0.746986 0.411724
629 4 0.412147 0.815486 0.372091
783 2 0.487422 0.833665 0.379655
627 2 0.412096 0.78196 0.35881
628 4 0.412047 0.748433 0.345529
1121 4 0.488747 0.751442 0.396666
283 4 0.135746 0.91115 0.383167
784 4 0.488205 0.82752 0.344129
1421 4 0.0678462 0.00810694 0.334696
284 4 0.0760175 0.925239 0.421057
282 2 0.105882 0.918194 0.402112
992 4 0.129719 0.193559 0.429231
990 2 0.165738 0.192567 0.430678
991 4 0.201757 0.191575 0.432126
673 4 0.221734 0.198782 0.466002
731 4 0.0202164 0.294743 0.479077
729 2 0.0486617 0.316895 0.479823
464 4 0.167831 0.326303 0.413203
672 2 0.217516 0.233176 0.475986
674 4 0.213297 0.26757 0.485971
1213 4 0.274582 0.312469 0.405463
1151 4 0.275459 0.309658 0.443156
1149 2 0.293786 0.316228 0.47351
1150 4 0.312114 0.3228 0.503863
730 4 0.0771068 0.339047 0.480569
41 1 0.437753 0.347653 0.419789
45 3 0.423836 0.319792 0.409354
44 3 0.432438 0.351478 0.452607
822 2 0.0140013 0.484557 0.477711
823 4 0.00257788 0.462274 0.451761
372 2 0.106665 0.463839 0.443583
374 4 0.0973071 0.491049 0.465319
935 4 0.082177 0.465978 0.488982
117 2 0.344742 0.48363 0.439734
118 4 0.325052 0.453593 0.436489
824 4 0.0254241 0.506839 0.503661
693 2 0.0113149 0.569951 0.453254
798 2 0.255221 0.544731 0.436061
119 4 0.364432 0.513667 0.442979
799 4 0.245337 0.536142 0.469661
958 4 0.010543 0.628707 0.473811
931 4 0.198826 0.664504 0.503382
932 4 0.161926 0.714524 0.466803
930 2 0.180376 0.689515 0.485092
1001 4 0.372118 0.706447 0.481766
695 4 0.032495 0.596092 0.466232
1395 2 0.102929 0.850174 0.461969
1397 4 0.111664 0.835025 0.430431
204 2 0.371294 0.793539 0.496454
205 4 0.384111 0.801942 0.463811
131 4 0.416402 0.817307 0.424388
129 2 0.437092 0.811831 0.453413
844 4 0.37497 0.864707 0.0258945
130 4 0.457783 0.806356 0.482435
419 4 0.0118304 0.179092 0.299247
1396 4 0.0941954 0.865323 0.493507
875 4 0.0873794 0.939171 0.498071
58 4 0.495672 0.622341 0.178326
506 4 0.0249653 0.75805 0.481923
1353 2 0.41974 0.073342 0.0167446
733 4 0.484204 0.375113 0.284182
1196 4 0.218202 0.128225 0.49286
604 4 0.23023 0.0112723 0.00682608
1137 2 0.447667 0.233094 0.00697898
1195 4 0.173487 0.0740028 0.509055
921 2 0.291737 0.0406577 0.568745
1194 2 0.195844 0.101114 0.500957
644 4 0.0050983 0.749958 0.686937
1099 4 0.321083 0.125492 0.539333
1098 2 0.343184 0.151118 0.52687
1100 4 0.365284 0.176743 0.514406
219 2 0.391488 0.22392 0.560334
220 4 0.365914 0.225978 0.585674
221 4 0.417061 0.221863 0.534992
1471 4 0.504443 0.249355 0.579605
1223 4 0.0166196 0.302991 0.514394
507 2 0.2228 0.27052 0.556851
509 4 0.228089 0.277851 0.52194
520 4 0.32086 0.309418 0.568832
293 4 0.368973 0.946437 0.957607
908 4 0.0919141 0.338765 0.5145
906 2 0.0974797 0.369043 0.53328
907 4 0.103044 0.399322 0.55206
1033 4 0.350951 0.329233 0.512624
1032 2 0.356089 0.364084 0.520336
1034 4 0.361225 0.398935 0.528048
1498 4 0.48812 0.358789 0.586295
1227 2 0.155676 0.475346 0.564188
1229 4 0.131442 0.453646 0.548627
934 4 0.104148 0.435588 0.550589
933 2 0.0931623 0.450783 0.519786
1052 4 0.452151 0.487362 0.579429
776 4 0.0755369 0.858339 0.522696
109 4 0.0130252 0.550692 0.580172
137 4 0.0913672 0.555546 0.553061
135 2 0.103418 0.535032 0.525962
136 4 0.11547 0.514518 0.498862
1228 4 0.179911 0.497048 0.579749
1359 2 0.175698 0.552771 0.573159
1051 4 0.456752 0.538492 0.528773
1050 2 0.454451 0.512927 0.554102
721 4 0.158731 0.673421 0.522044
720 2 0.163309 0.640979 0.537112
722 4 0.167888 0.608539 0.552178
1360 4 0.183534 0.578035 0.54865
1480 4 0.392221 0.581391 0.518715
1479 2 0.397925 0.615395 0.529285
432 2 0.199244 0.733507 0.579771
1481 4 0.403628 0.649397 0.539853
1000 4 0.403998 0.689087 0.544087
775 4 0.00912891 0.835111 0.506821
527 4 0.192645 0.94273 0.94511
434 4 0.205618 0.750142 0.548418
470 4 0.264554 0.801364 0.547733
468 2 0.261483 0.829184 0.524995
267 2 0.385942 0.822359 0.580738
268 4 0.378151 0.809526 0.547951
206 4 0.358477 0.785137 0.529097
873 2 0.0916179 0.908517 0.516586
774 2 0.0423341 0.846726 0.514759
1391 4 0.126361 0.859591 0.519697
1389 2 0.162084 0.854914 0.521285
874 4 0.0958581 0.877864 0.5351
1390 4 0.197805 0.850237 0.522873
469 4 0.258413 0.857005 0.502257
922 4 0.278735 0.00715288 0.565788
622 4 0.17223 0.104573 0.629723
621 2 0.175482 0.070889 0.617264
623 4 0.178734 0.0372055 0.604804
923 4 0.304739 0.0741633 0.571701
1030 4 0.134704 0.120233 0.651447
1031 4 0.0704755 0.122523 0.61872
1029 2 0.10259 0.121378 0.635084
1132 4 0.293735 0.0802371 0.610177
1131 2 0.281204 0.111916 0.622004
1133 4 0.268674 0.143595 0.633831
779 4 0.25187 0.179898 0.631993
652 4 0.369713 0.178249 0.668505
1469 4 0.421603 0.22657 0.632121
1468 4 0.489196 0.232701 0.607725
1467 2 0.4554 0.229636 0.619923
1289 4 0.157373 0.318663 0.657457
508 4 0.217511 0.263191 0.591761
1287 2 0.183581 0.299351 0.641945
1288 4 0.209789 0.280038 0.626433
519 2 0.344078 0.284887 0.581466
521 4 0.367294 0.260356 0.5941
1117 4 0.0539487 0.410862 0.640149
1116 2 0.0235646 0.391591 0.642568
127 4 0.377307 0.334263 0.665734
1410 2 0.46229 0.485856 0.634545
1411 4 0.470273 0.463141 0.661392
148 4 0.107112 0.559499 0.644844
1361 4 0.167863 0.527505 0.597668
1412 4 0.454307 0.508572 0.6077
196 4 0.996268 0.621496 0.648742
147 2 0.119799 0.583877 0.621496
149 4 0.132487 0.608256 0.598148
440 4 0.378065 0.668743 0.640569
643 4 0.0713295 0.75291 0.658539
642 2 0.0382136 0.751434 0.672738
433 4 0.192868 0.716872 0.611125
607 4 0.180248 0.684249 0.61523
606 2 0.177254 0.700384 0.647341
438 2 0.38122 0.700189 0.623203
439 4 0.384374 0.731635 0.605836
1237 4 0.458111 0.728803 0.695665
397 4 0.0138268 0.733783 0.636176
269 4 0.393735 0.835192 0.613525
890 4 0.263041 0.852316 0.591481
93 2 0.232901 0.902551 0.591061
95 4 0.213688 0.876208 0.575656
888 2 0.277675 0.839061 0.621656
889 4 0.29231 0.825806 0.651831
1382 4 0.091851 0.00120456 0.66024
94 4 0.252113 0.928894 0.606467
1075 4 0.32631 0.00592926 0.607012
1076 4 0.350484 0.974383 0.667197
1074 2 0.338397 0.990156 0.637104
1255 4 0.137043 0.0299887 0.725818
1381 4 0.150276 0.0304388 0.690792
1380 2 0.121063 0.0158217 0.675516
773 4 0.338685 0.985689 0.70109
1311 2 0.396258 0.0175158 0.715321
1312 4 0.388855 0.00387173 0.682772
577 4 0.360989 0.10817 0.763229
1163 4 0.0150263 0.103588 0.750653
631 4 0.241849 0.142073 0.723461
630 2 0.215955 0.117331 0.727673
632 4 0.190061 0.0925876 0.731886
653 4 0.436873 0.159501 0.686938
1040 4 0.47667 0.155159 0.683955
337 4 0.00164374 0.207305 0.720465
336 2 0.0269498 0.190935 0.740265
777 2 0.25387 0.202924 0.659673
778 4 0.255871 0.22595 0.687353
911 4 0.236678 0.222878 0.718661
651 2 0.403293 0.168875 0.677722
1183 4 0.402304 0.249582 0.729915
1184 4 0.467405 0.234392 0.702843
1038 2 0.487907 0.189332 0.686489
999 2 0.388058 0.697767 0.512926
1182 2 0.434854 0.241987 0.716379
971 4 0.0443968 0.265424 0.704538
970 4 0.108452 0.260629 0.671741
969 2 0.0764247 0.263026 0.688139
128 4 0.349364 0.314873 0.729334
475 4 0.378729 0.313836 0.752333
126 2 0.363335 0.324568 0.697534
1356 2 0.445234 0.359205 0.736484
1357 4 0.448893 0.360243 0.700624
70 4 0.468441 0.388888 0.695272
13 3 0.165945 0.508446 0.740686
15 3 0.163677 0.562552 0.736659
1333 4 0.185556 0.58643 0.723919
195 2 0.0295177 0.619964 0.662616
197 4 0.0627682 0.618432 0.676491
849 2 0.294233 0.650444 0.70354
850 4 0.269062 0.626639 0.693531
1238 4 0.460461 0.661477 0.66991
339 2 0.167818 0.981509 0.992391
1321 4 0.0932242 0.714031 0.78295
1322 4 0.117524 0.652843 0.753502
1320 2 0.105374 0.683436 0.768226
608 4 0.174261 0.716518 0.679452
1250 4 0.235619 0.716513 0.733664
851 4 0.319404 0.67425 0.71355
1236 2 0.459287 0.69514 0.682788
748 4 0.467875 0.69996 0.754831
1239 2 0.00959162 0.824871 0.705763
1241 4 0.0362042 0.826191 0.730061
1026 2 0.141635 0.940028 0.928069
771 2 0.31165 0.979665 0.724182
1254 2 0.121128 0.0199225 0.756571
1256 4 0.105213 0.00985629 0.787325
356 4 0.422844 0.0152721 0.772923
1313 4 0.40366 0.0311602 0.747871
354 2 0.407799 0.0156998 0.805693
1161 2 0.000143359 0.124063 0.776338
1309 4 0.151577 0.110043 0.809903
1308 2 0.175165 0.0933251 0.788351
1310 4 0.198754 0.076608 0.766798
1304 4 0.227789 0.102687 0.777177
1302 2 0.248532 0.11473 0.804106
578 4 0.339396 0.040135 0.752897
576 2 0.350192 0.0741525 0.758063
338 4 0.0522557 0.174566 0.760065
909 2 0.233526 0.233636 0.752935
910 4 0.230375 0.244396 0.787209
474 2 0.376887 0.321157 0.787594
476 4 0.375045 0.328478 0.822857
1016 4 0.0824906 0.410844 0.799177
919 4 0.0650009 0.360783 0.722097
918 2 0.0818991 0.375855 0.750164
920 4 0.0987976 0.390925 0.77823
602 4 0.213408 0.387279 0.809655
600 2 0.248959 0.384018 0.814738
9 3 0.385854 0.364406 0.811709
6 1 0.408504 0.388934 0.814019
7 3 0.392685 0.418075 0.815091
1358 4 0.441574 0.358166 0.772344
10 3 0.428357 0.388357 0.787858
1014 2 0.0652979 0.439423 0.812889
1015 4 0.0481049 0.468003 0.8266
450 2 0.129008 0.460804 0.763171
452 4 0.134412 0.496271 0.759506
451 4 0.123604 0.425339 0.766836
950 4 0.034378 0.499823 0.826941
11 1 0.155976 0.536759 0.75548
14 3 0.122932 0.535898 0.760706
12 3 0.171388 0.539583 0.784724
1041 2 0.34519 0.557523 0.796184
1042 4 0.353647 0.532089 0.772062
649 4 0.48031 0.561054 0.791932
299 4 0.45018 0.581409 0.802497
1334 4 0.149646 0.636521 0.761376
1332 2 0.167601 0.611476 0.742648
1043 4 0.336732 0.582959 0.820307
298 4 0.429909 0.650253 0.809663
297 2 0.440045 0.61583 0.806079
1373 4 0.0681921 0.74185 0.789732
1371 2 0.0934776 0.749705 0.814214
1249 4 0.227949 0.662772 0.781149
1248 2 0.231784 0.689642 0.757407
121 4 0.354716 0.713074 0.729502
122 4 0.398233 0.74554 0.776975
120 2 0.376474 0.729307 0.753239
747 2 0.43962 0.682594 0.768991
749 4 0.411367 0.665227 0.783152
1372 4 0.118762 0.75756 0.838695
1173 2 0.172934 0.78802 0.82817
1175 4 0.192513 0.808939 0.806274
236 4 0.201643 0.82186 0.775902
995 4 0.366258 0.835976 0.836242
790 4 0.12008 0.890943 0.78057
789 2 0.0983043 0.883968 0.808456
234 2 0.178639 0.849589 0.777428
235 4 0.155634 0.877318 0.778953
993 2 0.37983 0.8686 0.829038
994 4 0.393401 0.901225 0.821834
1060 4 0.143289 0.95654 0.806816
989 4 0.241511 0.920848 0.795978
987 2 0.247845 0.950549 0.776531
1059 2 0.151917 0.964817 0.840838
1061 4 0.160545 0.973094 0.87486
988 4 0.254177 0.98025 0.757085
772 4 0.284617 0.973643 0.747274
796 4 0.0496118 0.0174826 0.861663
795 2 0.0843555 0.0184039 0.871279
797 4 0.119098 0.019325 0.880894
232 4 0.141418 0.0295268 0.906359
231 2 0.172002 0.0456772 0.896152
567 2 0.255432 0.0783739 0.876107
569 4 0.238492 0.0468311 0.880405
233 4 0.202586 0.061828 0.885944
1460 4 0.396437 0.0784457 0.90502
1458 2 0.397809 0.0452647 0.890962
568 4 0.272371 0.109917 0.871808
1303 4 0.269275 0.126772 0.831035
1096 4 0.296492 0.0992377 0.893988
1070 4 0.384283 0.108001 0.931636
96 2 0.249596 0.211738 0.884772
179 4 0.380997 0.209303 0.863116
177 2 0.410596 0.22847 0.870663
295 4 0.0181732 0.302803 0.906585
1350 2 0.187803 0.306297 0.859631
1352 4 0.18452 0.339452 0.873428
1351 4 0.191087 0.273142 0.845833
1159 4 0.211849 0.321088 0.895787
97 4 0.233893 0.230323 0.858156
178 4 0.440195 0.247636 0.87821
1519 4 0.47043 0.269 0.885985
1158 2 0.241417 0.337698 0.908046
601 4 0.284511 0.380757 0.819823
895 4 0.295996 0.405092 0.849785
894 2 0.295454 0.402943 0.885778
896 4 0.294913 0.400794 0.921771
1084 4 0.392327 0.422149 0.928133
8 3 0.426437 0.385323 0.842043
184 4 0.438066 0.381485 0.875469
183 2 0.461798 0.381439 0.90262
185 4 0.48553 0.381392 0.929771
1088 4 0.26389 0.493524 0.871031
1086 2 0.248224 0.501833 0.902431
1083 2 0.371676 0.451434 0.924093
1085 4 0.351024 0.480719 0.920054
1507 4 0.0688951 0.506979 0.830065
1506 2 0.0979854 0.50712 0.851376
1508 4 0.127076 0.507262 0.872687
1198 4 0.147558 0.538247 0.891197
200 4 0.117111 0.55527 0.908908
1024 4 0.413034 0.529587 0.928063
1023 2 0.41489 0.561534 0.911439
431 4 0.118424 0.657467 0.902601
941 4 0.179342 0.623723 0.865382
1025 4 0.416745 0.593482 0.894815
359 4 0.367681 0.661734 0.889129
1178 4 0.391139 0.634275 0.890524
1174 4 0.153354 0.767101 0.850068
939 2 0.181173 0.659737 0.865666
289 4 0.211082 0.719934 0.870805
940 4 0.183003 0.695751 0.865949
288 2 0.220309 0.73181 0.903583
358 4 0.315463 0.663893 0.839426
357 2 0.341571 0.662814 0.864277
1176 2 0.41579 0.648432 0.868337
1177 4 0.440441 0.66259 0.846149
791 4 0.0765309 0.876993 0.836342
820 4 0.0384392 0.908704 0.907687
819 2 0.0426945 0.889121 0.877706
821 4 0.046948 0.869537 0.847727
1439 4 0.246312 0.926112 0.858438
1437 2 0.230961 0.938651 0.888562
413 4 0.234671 0.984908 0.917148
612 2 0.30815 0.939696 0.901671
614 4 0.280257 0.939067 0.878824
613 4 0.336043 0.940325 0.924518
1459 4 0.399181 0.0120849 0.876906
355 4 0.392754 0.0161268 0.838464
341 4 0.200294 0.996351 0.987343
1221 2 0.00461457 0.303132 0.548399
411 2 0.257174 0.996879 0.942657
412 4 0.279677 0.00884954 0.968167
1355 4 0.392951 0.0723826 0.992626
1438 4 0.215608 0.951191 0.918687
1453 4 0.313341 0.129894 0.980729
1097 4 0.301972 0.144003 0.95027
1095 2 0.299231 0.12162 0.922129
1452 2 0.335027 0.102295 0.989003
1068 2 0.419841 0.11216 0.935961
1069 4 0.4554 0.116318 0.940286
1028 4 0.108458 0.947011 0.940355
416 4 0.481811 0.13521 0.927082
98 4 0.2653 0.193152 0.911387
1027 4 0.174812 0.933045 0.915783
1139 4 0.423849 0.24493 0.982627
25 3 0.225577 0.360201 0.977415
1160 4 0.270984 0.354308 0.920305
218 4 0.300451 0.368227 0.953963
216 2 0.293913 0.401445 0.966382
140 4 0.417758 0.394104 0.928952
138 2 0.397156 0.383837 0.956711
139 4 0.376555 0.37357 0.98447
902 4 0.350685 0.350146 0.993191
1087 4 0.232558 0.510141 0.93383
217 4 0.287375 0.434663 0.9788
955 4 0.315354 0.454487 0.988134
893 4 0.0213057 0.529817 0.953033
106 4 0.0320781 0.51158 0.983118
1197 2 0.172451 0.551264 0.913811
198 2 0.0984906 0.574206 0.933304
287 4 0.205733 0.52944 0.950165
1199 4 0.197342 0.564281 0.936425
285 2 0.210601 0.521401 0.98498
199 4 0.0798703 0.593141 0.9577
430 4 0.0725411 0.694326 0.944289
429 2 0.0954829 0.675896 0.923445
1370 4 0.0925965 0.684396 0.993465
290 4 0.229535 0.743685 0.936359
615 2 0.121739 0.79505 0.995885
616 4 0.0963709 0.817438 0.983408
375 2 0.433997 0.842357 0.972668
376 4 0.430412 0.842138 0.936787
526 4 0.217353 0.881067 0.973199
525 2 0.204998 0.911898 0.959155
794 4 0.234657 0.864554 0.00253338
61 4 0.312831 0.878398 0.955419
845 4 0.329421 0.848636 0.972334
62 4 0.241717 0.889501 0.950823
60 2 0.277274 0.88395 0.953121
291 2 0.384212 0.919063 0.939751
292 4 0.399452 0.891689 0.921895
843 2 0.352196 0.856671 0.999115
1454 4 0.356713 0.074697 0.997276
340 4 0.135343 0.966667 0.997439
1035 2 0.711077 0.994287 0.0790639
328 4 0.512845 0.774661 0.445399
554 4 0.88879 0.0357704 0.0873103
552 2 0.904844 0.0677925 0.0831528
461 4 0.53977 0.596749 0.261371
1341 2 0.60136 0.143491 0.0525638
1342 4 0.59991 0.133442 0.017961
1114 4 0.946261 0.120782 0.065988
553 4 0.920898 0.099814 0.0789945
1113 2 0.96141 0.149648 0.0814048
761 4 0.970548 0.100914 0.0531463
759 2 0.961716 0.0821189 0.0236646
694 4 0.990135 0.543809 0.440276
371 4 0.675268 0.21282 0.000464923
369 2 0.687758 0.208051 0.0339563
370 4 0.700248 0.203283 0.0674481
133 4 0.778304 0.169949 0.0209834
717 2 0.874412 0.236592 0.0562497
308 4 0.94776 0.232851 0.00320696
1447 4 0.563732 0.28902 0.0273701
1446 2 0.578917 0.321597 0.0303007
307 4 0.915013 0.292027 0.0282569
718 4 0.896132 0.259776 0.039186
306 2 0.931386 0.262439 0.0157313
1448 4 0.594103 0.354173 0.0332311
158 4 0.624722 0.353252 0.0534499
156 2 0.64829 0.378795 0.0438273
157 4 0.671857 0.404337 0.0342059
330 2 0.793068 0.408319 0.032479
331 4 0.777432 0.376236 0.0376358
172 4 0.876949 0.362212 0.00432159
353 4 0.958526 0.371731 0.0404623
742 4 0.931228 0.429609 0.0315575
351 2 0.988605 0.388091 0.0291485
741 2 0.903852 0.422711 0.0539946
537 2 0.611448 0.484726 0.0625719
538 4 0.620847 0.484297 0.0277595
332 4 0.808705 0.440402 0.0273229
646 4 0.815294 0.466388 0.0502921
645 2 0.84917 0.478752 0.0501681
245 4 0.530409 0.56566 0.0745403
243 2 0.55591 0.540755 0.0800034
244 4 0.581412 0.515849 0.0854671
683 4 0.646957 0.510248 0.0265897
677 4 0.807797 0.505324 0.0959527
675 2 0.777511 0.523685 0.0891648
647 4 0.883046 0.491114 0.0500446
1504 4 0.906986 0.516658 0.0652386
1503 2 0.916898 0.535616 0.0362074
505 4 0.960152 0.76483 0.451019
1048 4 0.517324 0.592297 0.00223968
310 4 0.65752 0.739468 0.00489313
309 2 0.647993 0.709762 0.0229826
311 4 0.638466 0.680057 0.0410719
1276 4 0.814468 0.717605 0.0182152
409 4 0.672338 0.797001 0.0132289
408 2 0.698832 0.805868 0.0360284
410 4 0.725328 0.814735 0.0588284
1483 4 0.745457 0.814753 0.0914956
403 4 0.922746 0.794293 0.0416175
402 2 0.945452 0.820341 0.0519275
1018 4 0.97553 0.879602 0.0490854
404 4 0.968159 0.84639 0.0622361
1036 4 0.683902 0.972484 0.0697621
258 2 0.833604 0.977062 0.00514171
260 4 0.84289 0.951267 0.028567
1463 4 0.90577 0.0158716 0.0530325
28 3 0.908591 0.95511 0.0238177
1461 2 0.884555 0.989788 0.0660679
1077 2 0.62262 0.931459 0.473164
30 3 0.951689 0.925425 0.0093182
640 4 0.60047 0.125029 0.105235
766 4 0.621195 0.0526133 0.158255
1037 4 0.738252 0.01609 0.0883664
1171 4 0.758093 0.064181 0.139275
1172 4 0.771123 0.0242651 0.0806366
1170 2 0.764608 0.0442231 0.109956
1343 4 0.602809 0.15354 0.0871664
489 2 0.536461 0.108868 0.137877
491 4 0.562964 0.117253 0.114907
490 4 0.509958 0.100482 0.160849
1379 4 0.653103 0.160392 0.0981791
639 2 0.621911 0.0961978 0.108304
641 4 0.643351 0.0673657 0.111371
1377 2 0.683545 0.146833 0.111959
1378 4 0.713987 0.133275 0.125738
467 4 0.85501 0.102114 0.119998
466 4 0.831599 0.16745 0.139617
465 2 0.843305 0.134782 0.129807
323 4 0.568863 0.23204 0.103419
740 4 0.666782 0.22478 0.169499
134 4 0.748044 0.211018 0.0719674
132 2 0.763174 0.190484 0.0464758
1318 4 0.848344 0.203698 0.158554
1317 2 0.827624 0.231297 0.169017
719 4 0.852691 0.213409 0.0733123
590 4 0.924371 0.250296 0.15444
1115 4 0.976558 0.178513 0.0968221
589 4 0.938299 0.202337 0.102405
588 2 0.931335 0.226316 0.128422
322 4 0.525102 0.268788 0.147422
321 2 0.546982 0.250414 0.125421
1072 4 0.743472 0.420364 0.094817
1157 4 0.971881 0.418708 0.162211
1071 2 0.754822 0.434369 0.126049
1073 4 0.76617 0.448374 0.157282
996 2 0.907556 0.437293 0.150313
1155 2 0.99995 0.434667 0.146153
743 4 0.876477 0.415812 0.0764316
997 4 0.925749 0.407315 0.141903
499 4 0.575698 0.614801 0.117096
539 4 0.60205 0.485155 0.0973841
378 2 0.628411 0.582886 0.128504
379 4 0.612835 0.615209 0.132114
380 4 0.643986 0.550563 0.124894
676 4 0.747225 0.542046 0.0823774
1147 4 0.749952 0.574642 0.104651
598 4 0.894496 0.584998 0.126167
498 2 0.545259 0.609762 0.135766
500 4 0.514821 0.604722 0.154435
1148 4 0.794068 0.631696 0.104193
1146 2 0.77201 0.60317 0.104422
714 2 0.844852 0.640591 0.143569
716 4 0.835919 0.607275 0.154086
597 2 0.921576 0.608764 0.124669
599 4 0.948657 0.63253 0.12317
72 2 0.96215 0.677658 0.0987492
74 4 0.934909 0.667217 0.119946
303 2 0.655553 0.738159 0.127329
304 4 0.653416 0.713673 0.100942
692 4 0.832647 0.736981 0.180463
690 2 0.845883 0.722771 0.150077
691 4 0.859119 0.708562 0.119691
715 4 0.853785 0.673909 0.133053
73 4 0.989392 0.6881 0.0775527
281 4 0.893873 0.749904 0.133524
305 4 0.657689 0.762645 0.153716
1482 2 0.747252 0.805179 0.126216
1484 4 0.749047 0.795604 0.160937
280 4 0.956985 0.782901 0.144911
279 2 0.925429 0.766402 0.139217
1440 2 0.857217 0.93203 0.140868
1462 4 0.86334 0.963704 0.0791042
1442 4 0.851672 0.949191 0.10964
757 4 0.545641 0.0430105 0.238025
767 4 0.624452 0.990147 0.194156
765 2 0.622824 0.0213799 0.176205
524 4 0.698554 0.0611123 0.24574
1235 4 0.977718 0.0172096 0.21714
739 4 0.645823 0.216684 0.238032
738 2 0.656302 0.220732 0.203765
529 4 0.834398 0.23486 0.237764
528 2 0.86156 0.211706 0.232602
788 4 0.754715 0.291047 0.243127
1319 4 0.806903 0.258894 0.179481
744 2 0.7971 0.272409 0.230011
745 4 0.804873 0.242711 0.21109
457 4 0.954137 0.261792 0.168529
456 2 0.951274 0.294745 0.154166
458 4 0.948411 0.327698 0.139801
225 2 0.661361 0.381096 0.217226
226 4 0.648613 0.356582 0.194053
227 4 0.67411 0.405609 0.240398
1101 2 0.741008 0.40371 0.247168
455 4 0.703311 0.432569 0.247187
453 2 0.675582 0.45207 0.259483
1103 4 0.745027 0.426487 0.219501