ITEM: TIMESTEP
494500
ITEM: NUMBER OF ATOMS
1520
ITEM: BOX BOUNDS pp pp pp
-6.9326749999999997e+00 6.9326749999999997e+00
-6.9326749999999997e+00 6.9326749999999997e+00
-6.9326749999999997e+00 6.9326749999999997e+00
ITEM: ATOMS id type xs ys zs
598 4 0.472308 0.0232928 0.0667218
477 2 0.481696 0.0512694 0.0137848
478 4 0.466401 0.0539503 0.0463315
737 4 0.0219371 0.0994464 0.0810879
1185 2 0.414795 0.138877 0.0395972
1186 4 0.395876 0.128934 0.0686417
1154 4 0.309667 0.234988 0.0452837
581 4 0.314787 0.24416 0.0072019
1153 4 0.370353 0.203877 0.0218127
1152 2 0.34001 0.219433 0.0335484
1130 4 0.000140577 0.248528 0.00259169
532 4 0.16537 0.324554 0.0788565
328 4 0.249155 0.304982 0.0753164
850 4 0.257329 0.275269 0.0613477
849 2 0.292977 0.278949 0.0653505
851 4 0.328626 0.282628 0.0693538
1302 2 0.44511 0.271133 0.0595135
1303 4 0.462106 0.276807 0.0282189
80 4 0.0380253 0.37969 0.0698519
78 2 0.0133153 0.354166 0.0636585
763 4 0.439441 0.374008 0.0643405
762 2 0.465771 0.350918 0.0729398
593 4 0.161919 0.458275 0.100177
392 4 0.133999 0.467938 0.0746629
390 2 0.105396 0.470688 0.052875
391 4 0.076792 0.473437 0.0310873
591 2 0.188074 0.435472 0.0903607
1357 4 0.223234 0.409968 0.0449865
1356 2 0.239208 0.438778 0.0303144
592 4 0.214228 0.412669 0.0805436
1358 4 0.255181 0.467587 0.0156424
1253 4 0.243995 0.492215 0.0379285
293 4 0.488708 0.509721 0.0511257
291 2 0.470114 0.48273 0.0661633
503 4 0.0119025 0.84383 0.500236
467 4 0.00444314 0.925088 0.36356
237 2 0.019784 0.59046 0.0202944
1251 2 0.245659 0.515944 0.0108248
1281 2 0.422754 0.554621 0.049674
1283 4 0.40238 0.527803 0.0367881
1282 4 0.44313 0.58144 0.0625598
650 4 0.42697 0.536936 0.00987547
239 4 0.00935001 0.600844 0.0532142
1202 4 0.498462 0.815831 0.143979
1137 2 0.0878432 0.681344 0.0693688
1139 4 0.113986 0.686701 0.0451144
1157 4 0.183126 0.717876 0.0111052
1155 2 0.196289 0.685126 0.00371709
360 2 0.222145 0.746761 0.0931365
1163 4 0.342099 0.752315 0.0425667
1399 4 0.416078 0.736062 0.093401
181 4 0.00140036 0.828001 0.0156047
1345 4 0.352318 0.921628 0.454426
886 4 0.0165315 0.753954 0.0330717
558 2 0.222632 0.754798 0.999874
361 4 0.233976 0.746697 0.0590713
559 4 0.239605 0.781512 0.0171564
1511 4 0.489823 0.717898 0.283687
1162 4 0.271328 0.764615 0.0361021
1161 2 0.306714 0.758465 0.0393345
413 4 0.449271 0.840678 0.0270115
411 2 0.477911 0.821679 0.037928
1471 4 0.29521 0.606822 0.0171538
621 2 0.231861 0.880264 0.0714089
1426 4 0.271073 0.842666 0.0254418
623 4 0.258244 0.865731 0.0515818
1519 4 0.41233 0.892115 0.00839021
1518 2 0.437591 0.917768 0.00634267
1233 2 0.286153 0.989707 0.0734898
1234 4 0.282856 0.957006 0.0586513
555 2 0.110529 0.0212661 0.13128
557 4 0.113484 0.0315679 0.165712
556 4 0.107575 0.0109642 0.0968482
1235 4 0.28945 0.0224085 0.0883282
597 2 0.466127 0.0157071 0.10143
599 4 0.459947 0.00812101 0.136138
735 2 0.0166814 0.115935 0.112725
736 4 0.0114255 0.132424 0.144362
170 4 0.0914344 0.114201 0.147627
1271 4 0.281974 0.110118 0.156322
101 4 0.388949 0.144839 0.0981345
99 2 0.415699 0.163389 0.113649
752 4 0.304414 0.254292 0.175859
100 4 0.44245 0.181938 0.129164
772 4 0.434304 0.214639 0.1328
1304 4 0.428114 0.265459 0.0908079
327 2 0.215889 0.304641 0.0892316
329 4 0.182623 0.3043 0.103147
750 2 0.310185 0.262742 0.14128
751 4 0.315955 0.271191 0.106701
764 4 0.492102 0.327829 0.0815392
571 4 0.0124868 0.393921 0.0905088
1243 4 0.128293 0.383414 0.165798
262 4 0.166868 0.378265 0.154246
533 4 0.136608 0.366919 0.129647
531 2 0.150988 0.345736 0.104251
261 2 0.196961 0.398036 0.156269
606 2 0.298109 0.421617 0.128701
607 4 0.270156 0.438735 0.113667
724 4 0.0307951 0.492577 0.146574
263 4 0.227052 0.417806 0.15829
292 4 0.451519 0.455738 0.0812009
547 4 0.279207 0.515615 0.104748
546 2 0.274906 0.551123 0.10934
613 4 0.498974 0.54124 0.160464
840 2 0.0356772 0.614119 0.108756
841 4 0.0231273 0.626532 0.0773101
842 4 0.048227 0.601707 0.140202
15 3 0.237468 0.654194 0.147566
548 4 0.270606 0.586631 0.113932
931 4 0.472282 0.578712 0.086237
930 2 0.47899 0.605591 0.109322
932 4 0.485698 0.632471 0.132406
1138 4 0.0617007 0.675987 0.093623
362 4 0.210314 0.746824 0.127202
11 1 0.224722 0.676259 0.126841
13 3 0.246776 0.700817 0.121327
12 3 0.217765 0.661415 0.097998
14 3 0.196482 0.688912 0.139584
1197 2 0.292572 0.673421 0.176677
1198 4 0.273423 0.660808 0.148846
1400 4 0.376241 0.696234 0.0483622
1398 2 0.39616 0.716148 0.0708817
385 4 0.052033 0.917969 0.130759
1376 4 0.0367585 0.880314 0.137302
1374 2 0.0530483 0.857218 0.159699
929 4 0.115892 0.841085 0.0833878
927 2 0.143436 0.863898 0.0880027
928 4 0.17098 0.88671 0.0926173
622 4 0.205478 0.894797 0.0912363
1078 4 0.314406 0.834596 0.123469
1077 2 0.313758 0.857522 0.151297
384 2 0.0415036 0.950567 0.142027
386 4 0.0309737 0.983164 0.153294
346 4 0.21505 0.00129912 0.163836
345 2 0.244561 0.980809 0.160735
347 4 0.274072 0.960318 0.157635
814 4 0.376488 0.956118 0.0666017
815 4 0.385448 0.980568 0.133859
813 2 0.380968 0.968343 0.10023
151 4 0.00366851 0.0422052 0.191576
425 4 0.0986445 0.0324921 0.199527
423 2 0.127058 0.0535889 0.206457
424 4 0.155471 0.0746859 0.213387
389 4 0.479172 0.0328567 0.216869
387 2 0.465597 0.0203878 0.247863
169 4 0.060343 0.103806 0.211868
949 4 0.0930989 0.105528 0.227021
168 2 0.0758888 0.109004 0.179748
404 4 0.175604 0.0924446 0.236991
402 2 0.206881 0.109256 0.230706
403 4 0.238159 0.126067 0.224421
1269 2 0.296762 0.121854 0.187047
1270 4 0.31155 0.13359 0.217771
646 4 0.242121 0.202084 0.239384
771 2 0.44812 0.226624 0.163879
773 4 0.461936 0.238609 0.194957
1244 4 0.144635 0.32248 0.200749
978 2 0.208726 0.310278 0.189906
979 4 0.175338 0.320972 0.181464
980 4 0.242115 0.299584 0.198348
789 2 0.482261 0.331512 0.200522
790 4 0.493761 0.297558 0.204429
1242 2 0.136463 0.352948 0.183274
184 4 0.190599 0.400176 0.264375
298 4 0.388743 0.371861 0.258457
156 2 0.493469 0.413726 0.173545
158 4 0.463457 0.394469 0.178915
791 4 0.470761 0.365466 0.196615
723 2 0.0531572 0.464912 0.152489
725 4 0.0755188 0.437247 0.158405
608 4 0.326062 0.404499 0.143735
839 4 0.416566 0.489732 0.201651
837 2 0.441037 0.469961 0.219278
1420 4 0.0819965 0.547547 0.207049
1419 2 0.0559575 0.571088 0.215305
637 4 0.112548 0.566154 0.207613
636 2 0.133839 0.594901 0.20306
614 4 0.445038 0.513381 0.199405
612 2 0.472007 0.527311 0.179934
1421 4 0.0299183 0.59463 0.223562
638 4 0.155129 0.623648 0.198507
452 4 0.307889 0.631975 0.220065
451 4 0.365602 0.589765 0.229506
450 2 0.336745 0.61087 0.224786
1199 4 0.311722 0.686034 0.204509
463 4 0.059998 0.783208 0.26078
98 4 0.221217 0.777507 0.237139
1375 4 0.0693381 0.834123 0.182097
551 4 0.0879656 0.896675 0.215963
1117 4 0.168985 0.920272 0.207301
1079 4 0.31311 0.880447 0.179125
745 4 0.314185 0.900976 0.221096
1136 4 0.482739 0.827598 0.219228
549 2 0.0903217 0.92618 0.236562
1116 2 0.178357 0.949978 0.189132
1118 4 0.18773 0.979684 0.170964
744 2 0.308497 0.928599 0.198623
746 4 0.302811 0.956222 0.17615
1068 2 0.0765089 0.0731647 0.32673
1404 2 0.156153 0.0848475 0.290001
1406 4 0.121602 0.0794053 0.281223
596 4 0.205261 0.0643535 0.318705
594 2 0.240827 0.0609042 0.313849
1405 4 0.190703 0.0902899 0.298779
595 4 0.276393 0.0574553 0.308993
1172 4 0.271602 0.0302115 0.287044
1474 4 0.358354 0.0436257 0.302099
1473 2 0.357939 0.00757249 0.301466
388 4 0.452022 0.00791893 0.278858
1069 4 0.0894486 0.0931651 0.299657
948 2 0.0782863 0.11767 0.257576
950 4 0.0634743 0.129812 0.28813
674 4 0.000932284 0.215199 0.274291
760 4 0.127228 0.239501 0.323194
647 4 0.213819 0.216188 0.304205
787 4 0.195376 0.188494 0.324611
645 2 0.22797 0.209136 0.271795
1026 2 0.383755 0.223599 0.312266
1027 4 0.398907 0.193813 0.325817
761 4 0.0613918 0.268851 0.320759
759 2 0.0943098 0.254176 0.321976
505 4 0.30608 0.266754 0.313173
1028 4 0.368603 0.253385 0.298714
183 2 0.21482 0.399987 0.291091
185 4 0.239041 0.399798 0.317807
393 2 0.2953 0.382678 0.319606
395 4 0.261169 0.371935 0.31513
297 2 0.372801 0.394253 0.281799
299 4 0.356859 0.416643 0.305143
574 4 0.369004 0.384871 0.327352
394 4 0.329433 0.393421 0.324081
234 2 0.496372 0.400944 0.270298
864 2 0.258855 0.980765 0.471638
235 4 0.474306 0.428992 0.265126
838 4 0.465508 0.450192 0.236905
1025 4 0.370763 0.561287 0.358788
679 4 0.169237 0.626693 0.368712
1023 2 0.359183 0.591922 0.343694
1024 4 0.347603 0.622557 0.328601
1379 4 0.361879 0.654655 0.318022
1377 2 0.397694 0.658848 0.317702
464 4 0.0802703 0.722826 0.294611
1378 4 0.43351 0.663041 0.317381
1510 4 0.430741 0.676537 0.283274
1509 2 0.460282 0.697217 0.28348
462 2 0.0701341 0.753017 0.277695
96 2 0.230974 0.789478 0.269726
97 4 0.240731 0.801449 0.302313
748 4 0.468598 0.824843 0.25371
747 2 0.47745 0.801534 0.279762
749 4 0.486302 0.778224 0.305814
1344 2 0.331571 0.936031 0.480166
550 4 0.092678 0.955685 0.257161
755 4 0.0888755 0.977225 0.287017
753 2 0.0866595 0.991117 0.320221
1171 4 0.292803 0.961296 0.285353
1170 2 0.282202 0.995754 0.286199
1475 4 0.357523 0.971519 0.300832
1070 4 0.06357 0.0531642 0.353804
1123 4 0.0767306 0.0261036 0.384855
754 4 0.0844435 0.0050081 0.353426
484 4 0.381981 0.0431026 0.328996
483 2 0.379565 0.0762948 0.342882
1460 4 0.144385 0.11674 0.384881
1458 2 0.127937 0.123672 0.353547
1459 4 0.11149 0.130604 0.322213
485 4 0.37715 0.109487 0.356769
1395 2 0.386621 0.160853 0.395425
1396 4 0.399077 0.129737 0.382118
363 2 0.445604 0.105264 0.41877
364 4 0.433188 0.124247 0.390737
113 4 0.0510413 0.218311 0.405909
111 2 0.0792776 0.238611 0.396369
788 4 0.245636 0.157497 0.366022
786 2 0.220506 0.172995 0.345316
506 4 0.237627 0.265272 0.335835
63 2 0.338433 0.226402 0.407504
1397 4 0.374165 0.191969 0.408731
64 4 0.359795 0.213049 0.381703
112 4 0.107514 0.25891 0.386828
433 4 0.111409 0.288197 0.407555
123 2 0.212606 0.294081 0.380919
124 4 0.22442 0.261874 0.369803
504 2 0.271854 0.266013 0.324504
575 4 0.376874 0.337368 0.381049
1178 4 0.398436 0.308298 0.38267
1176 2 0.415303 0.282961 0.363331
1177 4 0.43217 0.257625 0.343992
125 4 0.200791 0.326288 0.392034
830 4 0.305736 0.326912 0.408499
573 2 0.37294 0.361119 0.354201
45 3 0.307735 0.48808 0.392362
306 2 0.153202 0.488109 0.361247
307 4 0.119092 0.481166 0.370665
455 4 0.206663 0.510198 0.379084
308 4 0.187312 0.495051 0.351828
453 2 0.242437 0.50951 0.383571
43 3 0.290094 0.535424 0.412265
454 4 0.278211 0.508822 0.38806
41 1 0.315835 0.514096 0.410702
44 3 0.342573 0.5294 0.397634
678 2 0.178323 0.659879 0.357919
822 2 0.0709555 0.745696 0.417391
823 4 0.0659898 0.71141 0.407381
825 2 0.138209 0.744029 0.360065
680 4 0.187411 0.693063 0.347126
666 2 0.245265 0.731063 0.342011
667 4 0.209468 0.726781 0.341938
1258 4 0.196321 0.716605 0.379044
827 4 0.169949 0.729559 0.350975
1257 2 0.199563 0.722978 0.414381
668 4 0.281071 0.735346 0.342081
824 4 0.0759208 0.779983 0.427401
826 4 0.106455 0.758503 0.369152
1461 2 0.135277 0.813367 0.396446
1463 4 0.127896 0.779335 0.387083
1037 4 0.350628 0.790452 0.36906
1035 2 0.382654 0.804552 0.360347
1036 4 0.414681 0.818651 0.351633
81 2 0.36724 0.906133 0.417312
1175 4 0.416905 0.90264 0.418225
1124 4 0.104257 0.977432 0.430409
1122 2 0.0904939 0.00176774 0.407633
83 4 0.342575 0.928365 0.403248
1174 4 0.472478 0.947898 0.410178
1173 2 0.444692 0.925269 0.414202
561 2 0.0439894 0.0558764 0.486955
892 4 0.041734 0.0761305 0.423496
563 4 0.0358427 0.0607407 0.452165
865 4 0.277522 0.00837107 0.457859
1504 4 0.309024 0.0211412 0.469229
1501 4 0.472223 0.865552 0.464359
1114 4 0.411305 0.0479442 0.498513
365 4 0.458019 0.0862808 0.446804
891 2 0.00917019 0.0901482 0.4169
436 4 0.49042 0.102977 0.459411
1158 2 0.0194504 0.209822 0.479408
1187 4 0.433714 0.148821 0.0105524
252 2 0.170537 0.204163 0.492516
254 4 0.183029 0.207613 0.458864
65 4 0.31707 0.239756 0.433306
1298 4 0.407143 0.235497 0.452718
103 4 0.420946 0.22326 0.482718
432 2 0.112989 0.306797 0.438409
434 4 0.114569 0.325396 0.469263
829 4 0.294282 0.265076 0.443808
828 2 0.300009 0.295994 0.426154
896 4 0.485774 0.280025 0.448292
1296 2 0.429054 0.263992 0.449837
1297 4 0.450966 0.292487 0.446954
1076 4 0.317213 0.340181 0.438441
1074 2 0.323388 0.375528 0.442027
629 4 0.364394 0.419444 0.447419
1075 4 0.329563 0.410875 0.445614
866 4 0.240187 0.95316 0.485418
627 2 0.360695 0.454629 0.440438
628 4 0.356995 0.489814 0.433457
42 3 0.32323 0.503943 0.441408
1433 4 0.338074 0.52953 0.461375
1431 2 0.335225 0.511855 0.492678
620 4 0.0052618 0.61594 0.485777
1478 4 0.291668 0.651534 0.485688
102 2 0.390107 0.211285 0.49707
295 4 0.025268 0.726657 0.462479
1259 4 0.20281 0.729348 0.449726
1476 2 0.311858 0.681396 0.484627
1477 4 0.332047 0.711256 0.483566
1465 4 0.435168 0.668872 0.489062
1464 2 0.4501 0.701662 0.49057
1466 4 0.465032 0.734452 0.492077
353 4 0.205284 0.765418 0.445624
351 2 0.199935 0.782978 0.476664
964 4 0.12248 0.951186 0.44646
965 4 0.133364 0.887274 0.414861
1462 4 0.142659 0.847401 0.40581
963 2 0.127922 0.91923 0.43066
82 4 0.391904 0.883901 0.431376
565 4 0.168394 0.0133221 0.493066
1520 4 0.462853 0.943421 0.00429528
562 4 0.0521358 0.0510116 0.521745
564 2 0.167764 0.0214275 0.528199
766 4 0.167708 0.114628 0.560162
566 4 0.167135 0.0295325 0.563331
1505 4 0.333925 0.0379629 0.534792
56 4 0.313134 0.0418657 0.560052
1115 4 0.480043 0.027408 0.505934
1113 2 0.445674 0.0376761 0.502223
767 4 0.239325 0.11574 0.568608
765 2 0.203516 0.115184 0.564385
1341 2 0.0265854 0.207848 0.569871
1342 4 0.048927 0.215389 0.542587
1160 4 0.0434101 0.206664 0.506173
253 4 0.158046 0.200713 0.526168
817 4 0.156533 0.225675 0.553418
104 4 0.359269 0.199309 0.511423
251 4 0.384024 0.878297 0.961487
301 4 0.143799 0.395774 0.528208
300 2 0.129071 0.365236 0.515923
881 4 0.170433 0.395132 0.587681
302 4 0.114344 0.334698 0.503638
611 4 0.353874 0.389748 0.518811
1363 4 0.0873461 0.48643 0.546207
1364 4 0.12859 0.42923 0.531081
833 4 0.147636 0.415472 0.559352
1362 2 0.107968 0.45783 0.538644
831 2 0.179292 0.428817 0.570319
832 4 0.210946 0.442163 0.581286
1432 4 0.332377 0.494179 0.523981
609 2 0.344454 0.423944 0.512305
1050 2 0.267512 0.559381 0.519776
1051 4 0.274755 0.524535 0.525579
544 4 0.0112971 0.601272 0.517443
543 2 0.0350924 0.628001 0.521887
326 4 0.236299 0.650949 0.566826
325 4 0.285174 0.627404 0.519302
324 2 0.260737 0.639177 0.543064
1052 4 0.260271 0.594228 0.513974
545 4 0.0588877 0.65473 0.52633
717 2 0.259728 0.811481 0.569384
718 4 0.285957 0.831835 0.555306
933 2 0.389549 0.786251 0.57331
305 4 0.36758 0.820645 0.520369
934 4 0.364436 0.802812 0.553423
583 4 0.463358 0.781454 0.538051
582 2 0.488224 0.755345 0.537397
163 4 0.486654 0.795081 0.512642
1423 4 0.245639 0.890929 0.56772
304 4 0.301948 0.849688 0.527485
303 2 0.334764 0.835167 0.523927
164 4 0.472066 0.864976 0.50247
162 2 0.47936 0.830029 0.507556
1389 2 0.0249737 0.940981 0.547334
352 4 0.194587 0.800537 0.507704
1391 4 0.0580721 0.933141 0.55931
1381 4 0.492936 0.816617 0.671401
1422 2 0.253627 0.913398 0.540669
1424 4 0.261616 0.935867 0.513618
54 2 0.326801 0.0634397 0.585511
55 4 0.340466 0.0850135 0.610971
958 4 0.335298 0.0778106 0.645614
1514 4 0.347279 0.155816 0.633703
517 4 0.473876 0.941161 0.968268
816 2 0.149642 0.21057 0.58543
818 4 0.142752 0.195465 0.617442
416 4 0.231192 0.166039 0.629934
414 2 0.254104 0.189249 0.614548
415 4 0.277016 0.212459 0.599162
1512 2 0.355898 0.187455 0.648708
1299 2 0.405682 0.285156 0.621045
1300 4 0.392365 0.252498 0.613527
1301 4 0.418998 0.317814 0.628563
879 2 0.158571 0.364611 0.602786
880 4 0.146709 0.33409 0.617891
130 4 0.482592 0.361658 0.614802
734 4 0.465073 0.356796 0.647524
330 2 0.0556397 0.63475 0.64329
332 4 0.0824176 0.64224 0.620328
340 4 0.098928 0.670142 0.637447
137 4 0.431208 0.666816 0.576088
341 4 0.169201 0.684447 0.645113
339 2 0.134064 0.677294 0.64128
343 4 0.191132 0.713565 0.644788
639 2 0.410343 0.742285 0.65303
135 2 0.425183 0.700348 0.587907
136 4 0.419158 0.733881 0.599726
641 4 0.417853 0.707243 0.649024
142 4 0.442365 0.688406 0.666471
610 4 0.335035 0.458141 0.5058
1449 2 0.0193772 0.813823 0.63866
1046 4 0.167298 0.839134 0.62654
719 4 0.233499 0.791128 0.583461
342 2 0.205929 0.740212 0.625515
344 4 0.220726 0.766859 0.606244
1291 4 0.187979 0.807259 0.633576
1290 2 0.205875 0.826601 0.658193
935 4 0.414662 0.76969 0.593197
1425 2 0.274821 0.829218 0.992193
238 4 0.0302176 0.580075 0.987374
922 4 0.017105 0.918986 0.584245
923 4 0.0219673 0.859296 0.624432
921 2 0.0195363 0.889141 0.604339
1451 4 0.0424896 0.832308 0.618056
1045 4 0.111523 0.81653 0.586792
1044 2 0.13941 0.827832 0.606666
1067 4 0.239114 0.8931 0.60359
1065 2 0.215754 0.909058 0.625952
1066 4 0.192394 0.925016 0.648315
259 4 0.127421 0.0767856 0.729135
260 4 0.198006 0.0627824 0.724311
258 2 0.162714 0.0697839 0.726723
957 2 0.352248 0.0895185 0.675212
959 4 0.369198 0.101227 0.70481
475 4 0.390638 0.108285 0.739773
1513 4 0.364517 0.219093 0.663712
147 2 0.482482 0.315574 0.741751
1001 4 0.0161707 0.337667 0.749564
732 2 0.435006 0.370753 0.661722
148 4 0.49052 0.348385 0.729136
733 4 0.404939 0.38471 0.67592
953 4 0.49838 0.373187 0.708833
951 2 0.49586 0.408851 0.713529
872 4 0.319337 0.467966 0.754315
189 2 0.42917 0.464302 0.717031
191 4 0.441105 0.47594 0.685054
952 4 0.493341 0.444517 0.718225
188 4 0.448229 0.567828 0.75461
331 4 0.0288616 0.62726 0.666251
143 4 0.451523 0.621892 0.692806
141 2 0.446944 0.655149 0.679638
186 2 0.439561 0.598527 0.737792
187 4 0.430894 0.629227 0.720975
438 2 0.145178 0.734305 0.70318
440 4 0.164373 0.727338 0.673457
439 4 0.125984 0.741271 0.732903
1292 4 0.223771 0.845944 0.68281
640 4 0.402831 0.777327 0.657037
1380 2 0.461164 0.80946 0.686884
1382 4 0.429392 0.802303 0.702368
1494 2 0.23147 0.886958 0.698031
1496 4 0.243945 0.871529 0.667919
1495 4 0.218995 0.902387 0.728143
140 4 0.138615 0.959221 0.718667
138 2 0.166497 0.955005 0.69619
139 4 0.194379 0.950789 0.673713
659 4 0.330804 0.949965 0.745811
657 2 0.363556 0.935034 0.743622
1418 4 0.457314 0.991468 0.750604
1411 4 0.497451 0.942479 0.738204
782 4 0.319564 0.066739 0.832586
516 2 0.483108 0.949243 0.934358
1352 4 0.481127 0.0212882 0.737498
474 2 0.407145 0.129909 0.763445
780 2 0.351199 0.0839097 0.830398
781 4 0.382835 0.10108 0.828211
1480 4 0.457384 0.153726 0.798104
1479 2 0.484151 0.12986 0.801886
476 4 0.423651 0.151534 0.787115
988 4 0.00221495 0.17131 0.841629
1348 4 0.0678022 0.22817 0.807725
1347 2 0.0383659 0.220102 0.82693
695 4 0.229661 0.244005 0.77246
694 4 0.283514 0.200679 0.793059
693 2 0.256588 0.222342 0.782759
1355 4 0.388791 0.206141 0.755518
604 4 0.47935 0.209082 0.792202
1353 2 0.418218 0.217932 0.772706
603 2 0.493308 0.239454 0.77867
1354 4 0.447646 0.229722 0.789894
1090 4 0.196741 0.233119 0.788914
1089 2 0.195794 0.268082 0.797695
1091 4 0.194847 0.303045 0.806475
149 4 0.474443 0.282762 0.754367
232 4 0.0463774 0.355396 0.755993
231 2 0.0751561 0.371379 0.770716
233 4 0.103934 0.387362 0.785438
1004 4 0.140382 0.385572 0.781314
1002 2 0.157684 0.353934 0.781466
1003 4 0.174988 0.322295 0.781618
696 2 0.249513 0.329655 0.77889
697 4 0.214099 0.32653 0.772847
321 2 0.324172 0.354052 0.83114
323 4 0.298038 0.33228 0.819166
698 4 0.284927 0.332781 0.784933
913 4 0.453375 0.393327 0.796363
1094 4 0.0327717 0.497323 0.772551
1092 2 0.0656762 0.482676 0.77077
1093 4 0.0985809 0.46803 0.768988
1203 2 0.164156 0.473256 0.83653
1204 4 0.159042 0.448598 0.810718
870 2 0.335787 0.45217 0.782248
871 4 0.352237 0.436375 0.810182
190 4 0.417234 0.452664 0.749008
914 4 0.410322 0.449784 0.783687
912 2 0.431849 0.421556 0.790025
955 4 0.492406 0.497031 0.783454
660 2 0.223901 0.559569 0.808252
662 4 0.201119 0.548674 0.782509
956 4 0.462744 0.562581 0.788456
954 2 0.477575 0.529806 0.785955
901 4 0.0879294 0.661185 0.854253
848 4 0.0915106 0.712536 0.840549
863 4 0.498749 0.456214 0.979603
480 2 0.257908 0.808687 0.827902
288 2 0.19157 0.749792 0.831734
289 4 0.216075 0.775837 0.827095
482 4 0.292334 0.808117 0.81718
968 4 0.477046 0.808643 0.818918
966 2 0.468898 0.826555 0.788699
1211 4 0.0597642 0.869659 0.858486
268 4 0.144235 0.870012 0.776609
267 2 0.177286 0.873923 0.762725
269 4 0.210337 0.877834 0.748842
967 4 0.46075 0.844466 0.75848
1319 4 0.0358786 0.981374 0.795118
658 4 0.396306 0.920103 0.741432
1417 4 0.427759 0.925834 0.746098
1416 2 0.442535 0.958651 0.748351
1403 4 0.491085 0.70909 0.655351
115 4 0.00514467 0.0531889 0.806833
1149 2 0.296153 0.0161748 0.867936
1151 4 0.300677 0.0511786 0.860541
511 4 0.415099 0.0515568 0.911434
1147 4 0.417375 0.0513185 0.875141
867 2 0.121305 0.121545 0.879374
869 4 0.0990843 0.132352 0.905639
868 4 0.143525 0.110737 0.853109
192 2 0.396544 0.157622 0.866922
193 4 0.388002 0.135443 0.839801
1148 4 0.433975 0.117714 0.852389
1146 2 0.425675 0.0845161 0.863765
1349 4 0.00892967 0.212034 0.846136
93 2 0.135531 0.230678 0.92338
194 4 0.405084 0.179802 0.894043
1366 4 0.144706 0.308547 0.891177
95 4 0.134653 0.26515 0.91283
1365 2 0.125255 0.317169 0.862061
699 2 0.203679 0.26661 0.895425
701 4 0.171528 0.264714 0.911647
700 4 0.23583 0.268505 0.879203
280 4 0.260081 0.274861 0.845126
279 2 0.278985 0.290159 0.871754
1439 4 0.00215385 0.350918 0.854894
1367 4 0.105803 0.325791 0.832945
515 4 0.159126 0.372833 0.933645
281 4 0.297888 0.305457 0.898381
322 4 0.350307 0.375824 0.843114
1218 2 0.386938 0.391606 0.882076
1219 4 0.382493 0.362562 0.86117
1220 4 0.391382 0.420651 0.902983
1205 4 0.169271 0.497913 0.862342
427 4 0.244372 0.492347 0.894609
1240 4 0.301013 0.488959 0.855117
703 4 0.0305523 0.495497 0.863552
704 4 0.0592339 0.508675 0.9284
702 2 0.0448933 0.502086 0.895976
661 4 0.246682 0.570463 0.833996
380 4 0.204838 0.500644 0.874224
378 2 0.185285 0.523337 0.8943
338 4 0.204686 0.551511 0.94001
1241 4 0.359558 0.520782 0.882711
1239 2 0.330285 0.504871 0.868914
396 2 0.446021 0.571909 0.894464
398 4 0.445518 0.537931 0.906536
1408 4 0.103634 0.597599 0.870375
1407 2 0.0998321 0.59563 0.906181
774 2 0.462214 0.646141 0.921083
776 4 0.47353 0.615103 0.906628
397 4 0.446525 0.605886 0.882393
900 2 0.0524704 0.66722 0.856823
902 4 0.0170101 0.673255 0.859395
512 4 0.455979 0.995033 0.929751
846 2 0.125803 0.701522 0.842321
847 4 0.160095 0.690508 0.844094
290 4 0.167065 0.723746 0.836373
315 2 0.326993 0.737017 0.915331
1210 4 0.125315 0.844445 0.874887
481 4 0.223482 0.809257 0.838623
317 4 0.29165 0.743242 0.911794
1324 4 0.397416 0.816653 0.889592
1323 2 0.427148 0.79656 0.893148
898 4 0.387814 0.900379 0.906264
1325 4 0.45688 0.776466 0.896705
1209 2 0.0925393 0.857052 0.866686
1499 4 0.315415 0.914709 0.851724
897 2 0.376697 0.866391 0.90161
899 4 0.36558 0.832403 0.896956
1317 2 0.0494317 0.957987 0.818988
1180 4 0.0637792 0.955108 0.875034
1318 4 0.0629846 0.934599 0.842857
1181 4 0.103934 0.988073 0.92506
1179 2 0.0838567 0.971591 0.900047
1150 4 0.291629 0.981171 0.875331
1497 2 0.320481 0.933983 0.881777
1498 4 0.325548 0.953258 0.911831
518 4 0.492341 0.957324 0.900449
860 4 0.0294228 0.0349195 0.99781
653 4 0.245368 0.0192353 0.959451
652 4 0.307637 0.0528641 0.945545
651 2 0.276503 0.0360498 0.952498
510 2 0.435539 0.0232949 0.920592
1006 4 0.0360351 0.096516 0.994806
1005 2 0.0244253 0.128234 0.982174
1279 4 0.061175 0.105935 0.97136
1007 4 0.0128157 0.159953 0.969541
1278 2 0.096903 0.101082 0.970749
1280 4 0.132631 0.0962287 0.970137
250 4 0.387516 0.812113 0.989933
1129 4 0.0144333 0.194801 0.956648
1100 4 0.0283782 0.19058 0.919503
1098 2 0.0631213 0.198458 0.925094
1128 2 0.0072868 0.221664 0.97962
94 4 0.136408 0.196206 0.933931
1099 4 0.097865 0.206335 0.930686
580 4 0.273072 0.283547 0.963496
579 2 0.293929 0.263853 0.985349
514 4 0.198213 0.431705 0.948065
513 2 0.178669 0.402269 0.940855
428 4 0.235637 0.435871 0.938607
426 2 0.240005 0.464109 0.916608
1427 4 0.278569 0.815769 0.958944
241 4 0.0049636 0.563406 0.960062
379 4 0.165732 0.546031 0.914378
1252 4 0.247322 0.539672 0.983721
336 2 0.230655 0.574597 0.930364
648 2 0.427132 0.531576 0.974215
649 4 0.427292 0.526217 0.938555
632 4 0.0606462 0.633219 0.979116
630 2 0.064007 0.667791 0.969427
1409 4 0.0960307 0.593662 0.941988
23 3 0.100122 0.599994 0.984724
21 1 0.131491 0.604496 0.973972
25 3 0.152606 0.599647 0.998658
22 3 0.134653 0.635587 0.962835
24 3 0.138136 0.583309 0.948934
1472 4 0.257033 0.596964 0.956763
337 4 0.256624 0.597683 0.920718
1470 2 0.276121 0.601893 0.986959
249 2 0.38577 0.845205 0.97571
631 4 0.0673675 0.702363 0.959738
154 4 0.0829697 0.7144 0.931404
153 2 0.066253 0.745798 0.937333
560 4 0.20566 0.728083 0.982591
316 4 0.362336 0.730792 0.918869
992 4 0.36347 0.730161 0.958213
990 2 0.394355 0.71235 0.952798
775 4 0.450899 0.67718 0.935538
991 4 0.425239 0.69454 0.947382
885 2 0.0170518 0.764441 0.998573
887 4 0.0175724 0.774929 0.964075
155 4 0.0495363 0.777195 0.943261
1343 4 0.00424353 0.200308 0.597155
1156 4 0.209452 0.652377 0.996329
1346 4 0.310824 0.950432 0.505906
1503 2 0.321474 0.0295521 0.502011
20 3 0.902989 0.0354505 0.0637866
859 4 0.962858 0.0537847 0.018178
84 2 0.573559 0.129122 0.0609067
85 4 0.569591 0.0936989 0.0554416
86 4 0.577526 0.164545 0.0663719
215 4 0.726881 0.0853998 0.00388275
213 2 0.732015 0.120582 0.00990519
664 4 0.733203 0.0940304 0.0428375
1121 4 0.825779 0.160411 0.0209818
1119 2 0.843849 0.166429 0.0516034
214 4 0.737149 0.155764 0.0159286
1120 4 0.861919 0.172446 0.0822251
1445 4 0.990108 0.082363 0.0847972
333 2 0.88692 0.242221 0.998379
465 2 0.986704 0.955804 0.35706
1293 2 0.712277 0.334028 0.00577436
334 4 0.917293 0.256183 0.0119041
79 4 0.988606 0.328642 0.0574654
862 4 0.51599 0.424322 0.0419508
1295 4 0.719227 0.355619 0.033809
861 2 0.50737 0.440268 0.0107769
1245 2 0.659304 0.556157 0.034084
1247 4 0.635267 0.533751 0.0192301
1246 4 0.68334 0.578563 0.0489372
122 4 0.793578 0.574661 0.0281285
1255 4 0.636788 0.633704 0.105205
221 4 0.847678 0.64193 0.00398118
529 4 0.897884 0.650619 0.0490019
708 2 0.539457 0.678229 0.0559947
710 4 0.520896 0.673633 0.0254199
709 4 0.558017 0.682825 0.0865689
1435 4 0.628846 0.730086 0.0631333
1434 2 0.647899 0.733603 0.0327192
466 4 0.968965 0.98652 0.350561
530 4 0.951673 0.680735 0.0864372
528 2 0.924779 0.665677 0.0677193
1201 4 0.508754 0.779841 0.0823306
536 4 0.533667 0.780747 0.0301596
904 4 0.82637 0.808726 0.0511163
903 2 0.835716 0.780746 0.0303757
905 4 0.845062 0.752765 0.00963473
182 4 0.988564 0.818929 0.0859937
1492 4 0.806379 0.902345 0.0104748
1314 2 0.891799 0.902568 0.026165
1316 4 0.92461 0.909366 0.0394926
656 4 0.647339 0.990076 0.0572373
654 2 0.647212 0.994353 0.0214307
1095 2 0.983532 0.956516 0.0316398
1096 4 0.98442 0.947662 0.0665858
1500 2 0.501378 0.884323 0.454457
665 4 0.732962 0.0737604 0.112053
663 2 0.733083 0.0838955 0.0774454
520 4 0.752161 0.0762376 0.142514
16 1 0.891738 0.0266467 0.0933625
18 3 0.867484 0.0475726 0.103045
1132 4 0.850649 0.0250696 0.128082
1131 2 0.844046 0.0166085 0.16251
1443 2 0.958303 0.0653998 0.0858256
19 3 0.916703 0.0270012 0.115646
1444 4 0.926497 0.0484368 0.0868539
519 2 0.780621 0.091479 0.15858
524 4 0.919815 0.110267 0.178182
522 2 0.948992 0.11406 0.157332
523 4 0.978169 0.117853 0.136481
410 4 0.593425 0.227487 0.140885
408 2 0.575057 0.204898 0.162162
1276 4 0.837606 0.189297 0.104663
1277 4 0.885398 0.215754 0.151755
1275 2 0.861502 0.202525 0.128209
706 4 0.912167 0.237993 0.159359
1022 4 0.91277 0.365574 0.0985334
1020 2 0.933016 0.354482 0.126237
381 2 0.84145 0.421933 0.160415
157 4 0.523481 0.432983 0.168174
1056 2 0.702398 0.45844 0.14823
1058 4 0.721937 0.482251 0.166983
1057 4 0.682859 0.434629 0.129477
1014 2 0.88907 0.460976 0.121342
1015 4 0.871337 0.432021 0.109193
383 4 0.859779 0.446011 0.140801
570 2 0.999575 0.427485 0.0931788
572 4 0.986664 0.46105 0.0958483
1016 4 0.906801 0.489931 0.133491
457 4 0.895262 0.52754 0.126801
456 2 0.922438 0.551069 0.123927
458 4 0.949614 0.574598 0.121054
224 4 0.510988 0.617418 0.152368
942 2 0.590702 0.660481 0.135987
943 4 0.615476 0.638382 0.150068
1254 2 0.669921 0.645725 0.0975808
1111 4 0.811795 0.607285 0.0878196
1112 4 0.820135 0.629655 0.155876
1110 2 0.815965 0.61847 0.121848
944 4 0.565927 0.682579 0.121905
1071 2 0.568788 0.734211 0.149424
1072 4 0.603381 0.724046 0.15004
1256 4 0.703055 0.657745 0.0899574
1227 2 0.824212 0.713705 0.128065
1229 4 0.830157 0.687373 0.104155
1228 4 0.818266 0.740038 0.151974
1200 2 0.503608 0.797836 0.113155
1315 4 0.858988 0.895769 0.0128375
1073 4 0.534195 0.744377 0.148809
805 4 0.834108 0.780647 0.0778363
804 2 0.831376 0.786865 0.113253
472 4 0.840389 0.891654 0.121959
471 2 0.8056 0.901138 0.121466
806 4 0.828643 0.793083 0.148668
682 4 0.803964 0.948223 0.105858
473 4 0.770812 0.910622 0.120973
681 2 0.825799 0.976538 0.101179
17 3 0.879339 0.995923 0.0916354
683 4 0.847634 0.00485349 0.0965015
175 4 0.502769 0.0583248 0.230999
1133 4 0.837443 0.00814684 0.196937
150 2 0.970141 0.0303644 0.185568
152 4 0.936613 0.0185233 0.17956
685 4 0.9318 0.0974145 0.239458
1452 2 0.61219 0.120056 0.192058
1454 4 0.597641 0.121124 0.159079
1453 4 0.626738 0.118986 0.225036
986 4 0.662791 0.121513 0.219161
984 2 0.674727 0.102846 0.247613
521 4 0.809082 0.10672 0.174647
356 4 0.811777 0.108036 0.212383
354 2 0.824897 0.13749 0.228529
409 4 0.556689 0.182309 0.18344
133 4 0.542221 0.179279 0.214539
132 2 0.537018 0.209234 0.233931
107 4 0.892339 0.270103 0.195052
794 4 0.932821 0.173793 0.236057
707 4 0.923506 0.178947 0.199192
705 2 0.917837 0.20847 0.179276
61 4 0.712294 0.322424 0.217599
105 2 0.857837 0.26927 0.184594
106 4 0.823335 0.268436 0.174137
983 4 0.983969 0.333857 0.184105
1088 4 0.659438 0.38698 0.265544
62 4 0.676276 0.382472 0.234875
60 2 0.694284 0.352448 0.226237
382 4 0.82312 0.397855 0.180028
1021 4 0.953261 0.343391 0.153942
981 2 0.965175 0.34252 0.213637
982 4 0.94638 0.351184 0.243168
1086 2 0.631339 0.409359 0.26237
418 4 0.584053 0.535859 0.221807
417 2 0.554451 0.531366 0.201709
419 4 0.524849 0.526873 0.181611
1081 4 0.816245 0.566786 0.200487
1080 2 0.849469 0.553091 0.197491
1082 4 0.882694 0.539397 0.194495
1226 4 0.960212 0.533312 0.242939
222 2 0.514563 0.633561 0.184415
223 4 0.518137 0.649704 0.216462