ITEM: TIMESTEP
336000
ITEM: NUMBER OF ATOMS
1520
ITEM: BOX BOUNDS pp pp pp
-6.9326749999999997e+00 6.9326749999999997e+00
-6.9326749999999997e+00 6.9326749999999997e+00
-6.9326749999999997e+00 6.9326749999999997e+00
ITEM: ATOMS id type xs ys zs
193 4 0.398591 0.100058 0.112058
192 2 0.425051 0.0969021 0.0877625
615 2 0.431718 0.0842716 0.00649658
1482 2 0.00325365 0.303327 0.476778
658 4 0.150153 0.238304 0.0415218
657 2 0.18538 0.245875 0.0429659
893 4 0.473454 0.209188 0.0867523
891 2 0.470585 0.182825 0.0623153
892 4 0.467716 0.156461 0.0378786
815 4 0.0915992 0.281971 0.0127744
813 2 0.107341 0.261531 0.0379701
814 4 0.123082 0.241091 0.0631656
659 4 0.220607 0.253446 0.0444092
163 4 0.209245 0.288582 0.0533206
162 2 0.20205 0.31913 0.0710816
1263 2 0.275226 0.257304 0.0719779
1265 4 0.247834 0.240212 0.0559195
359 4 0.410601 0.291273 0.0952093
357 2 0.432369 0.263294 0.101823
164 4 0.194856 0.349679 0.0888424
1332 2 0.147466 0.40024 0.000445916
1333 4 0.136249 0.366317 0.00532575
949 4 0.483933 0.406931 0.0904015
1326 2 0.45076 0.362295 0.0437663
388 4 0.0142169 0.90107 0.334784
242 4 0.262753 0.483861 0.0321848
1516 4 0.285977 0.392177 0.0531526
1515 2 0.27424 0.426091 0.0566876
1517 4 0.262502 0.460005 0.0602224
796 4 0.233084 0.529405 0.0916055
795 2 0.266357 0.537102 0.0800252
854 4 0.481792 0.517391 0.0756692
852 2 0.455793 0.514495 0.0508487
853 4 0.429793 0.511598 0.0260278
1421 4 0.498503 0.801819 0.0113461
14 3 0.288799 0.647801 0.044508
425 4 0.232491 0.703239 0.0824767
12 3 0.255653 0.690119 0.0515039
15 3 0.27913 0.6823 0.00370175
11 1 0.28319 0.679728 0.0361934
1202 4 0.309986 0.704291 0.00922106
13 3 0.308884 0.698779 0.0460323
1046 4 0.00168927 0.323463 0.0330167
889 4 0.133501 0.82685 0.0807854
178 4 0.135261 0.799715 0.0535403
177 2 0.108825 0.786045 0.0331762
888 2 0.165829 0.842733 0.0790458
890 4 0.198157 0.858616 0.0773059
341 4 0.094988 0.864513 0.046834
339 2 0.101183 0.894004 0.0666401
1499 4 0.286503 0.894304 0.0928334
1178 4 0.40032 0.835463 0.0208611
1176 2 0.37343 0.858874 0.0154445
1177 4 0.346541 0.882284 0.0100275
618 2 0.406739 0.898948 0.107912
340 4 0.107377 0.923496 0.0864454
1180 4 0.336389 0.967126 0.0507076
1179 2 0.359344 0.968302 0.0784939
620 4 0.387571 0.929257 0.104111
650 4 0.500041 0.970369 0.0134446
648 2 0.485638 0.957465 0.0438819
1117 4 0.48149 0.0395254 0.129
149 4 0.459505 0.0122393 0.115493
1116 2 0.491921 0.0729717 0.137542
1034 4 0.0878616 0.0959177 0.151384
1032 2 0.0665319 0.124914 0.153544
218 4 0.122643 0.137112 0.138211
216 2 0.156722 0.125919 0.134502
217 4 0.190801 0.114726 0.130792
632 4 0.194754 0.0896788 0.15641
1054 4 0.394252 0.21029 0.0868863
194 4 0.451512 0.0937463 0.0634668
1312 4 0.209347 0.206606 0.144569
1264 4 0.302619 0.274396 0.0880364
1053 2 0.402076 0.194154 0.118173
1055 4 0.409901 0.178019 0.149459
328 4 0.144996 0.359181 0.155518
1079 4 0.329216 0.280192 0.110719
1077 2 0.356581 0.283492 0.0874667
1078 4 0.383947 0.286791 0.0642146
692 4 0.489459 0.24608 0.119376
358 4 0.454136 0.235314 0.108437
327 2 0.111297 0.347208 0.15089
329 4 0.0775977 0.335235 0.146263
811 4 0.165013 0.362567 0.102832
810 2 0.175347 0.39461 0.115748
478 4 0.268303 0.387566 0.132515
318 2 0.39501 0.373101 0.0912977
320 4 0.366013 0.392076 0.0813243
319 4 0.424008 0.354125 0.10127
812 4 0.185681 0.426653 0.128665
1286 4 0.206282 0.455995 0.127894
1284 2 0.202645 0.483875 0.105313
665 4 0.312641 0.47739 0.13287
663 2 0.333991 0.470963 0.161213
948 2 0.459316 0.43216 0.0827938
950 4 0.434699 0.45739 0.0751859
313 4 0.0589382 0.496147 0.162397
1285 4 0.199009 0.511755 0.0827322
797 4 0.29963 0.544799 0.0684449
719 4 0.337516 0.597385 0.13841
308 4 0.250415 0.634014 0.157554
306 2 0.219382 0.647082 0.144647
424 4 0.22368 0.767872 0.113243
423 2 0.228085 0.735556 0.0978601
307 4 0.188348 0.66015 0.131741
1400 4 0.418896 0.777098 0.0877129
918 2 0.0084545 0.839399 0.173601
685 4 0.233562 0.765971 0.154272
1398 2 0.391823 0.797734 0.0996126
1399 4 0.36475 0.818371 0.111512
1327 4 0.460661 0.327639 0.0426114
793 4 0.121924 0.928824 0.114524
143 4 0.227171 0.907372 0.16467
1497 2 0.258118 0.910284 0.108304
274 4 0.33617 0.834357 0.0941596
273 2 0.342159 0.85247 0.124761
1360 4 0.364131 0.901964 0.161631
275 4 0.348148 0.870583 0.155362
619 4 0.425907 0.868641 0.111714
595 4 0.457963 0.883593 0.118099
594 2 0.484491 0.897908 0.137892
140 4 0.0220928 0.97807 0.146412
138 2 0.024451 0.97323 0.110755
175 4 0.116764 0.957267 0.195711
792 2 0.152964 0.945819 0.121454
794 4 0.184005 0.962814 0.128385
1430 4 0.217987 0.945808 0.151817
1428 2 0.231945 0.978331 0.158738
1498 4 0.229732 0.926263 0.123775
1181 4 0.382301 0.969477 0.10628
148 4 0.419458 0.954158 0.100506
147 2 0.439483 0.983199 0.107999
1393 4 0.0333847 0.961032 0.177723
1392 2 0.0678166 0.971539 0.175606
1017 2 0.397206 0.0609634 0.221708
1018 4 0.37205 0.0444183 0.201862
1033 4 0.0452022 0.15391 0.155704
630 2 0.221262 0.101542 0.177787
631 4 0.24777 0.113405 0.199164
1019 4 0.422362 0.0775086 0.241553
1311 2 0.22285 0.194741 0.175831
1313 4 0.236353 0.182876 0.207093
1464 2 0.247024 0.252754 0.228714
1465 4 0.242614 0.225617 0.205378
156 2 0.369142 0.186558 0.20064
157 4 0.377792 0.172523 0.168568
1036 4 0.00494686 0.338202 0.244277
1037 4 0.0663176 0.303206 0.258786
1035 2 0.0356322 0.320704 0.251531
524 4 0.160537 0.414531 0.242944
522 2 0.15467 0.387904 0.219344
440 4 0.124718 0.416815 0.250137
523 4 0.148804 0.361276 0.195743
479 4 0.267773 0.382031 0.204423
477 2 0.268038 0.384799 0.168469
664 4 0.35534 0.464535 0.189555
875 4 0.364747 0.463377 0.223646
873 2 0.376415 0.484767 0.25023
312 2 0.0781068 0.522037 0.178604
1102 4 0.460281 0.551568 0.220179
1101 2 0.466676 0.51788 0.231341
314 4 0.0972751 0.547927 0.19481
448 4 0.103709 0.579845 0.184781
447 2 0.0769574 0.603542 0.189595
537 2 0.330311 0.620029 0.254204
538 4 0.342626 0.629409 0.221634
717 2 0.354588 0.603915 0.169495
718 4 0.37166 0.610446 0.200581
920 4 0.0355361 0.837926 0.197366
1501 4 0.0635142 0.860752 0.204963
1154 4 0.175321 0.783912 0.23277
684 2 0.232163 0.799132 0.168372
686 4 0.230764 0.832293 0.182472
1500 2 0.0942967 0.867402 0.187396
1382 4 0.0376545 0.885839 0.261177
1502 4 0.125079 0.874053 0.169828
141 2 0.227278 0.879718 0.187816
142 4 0.227385 0.852065 0.210962
321 2 0.275337 0.938304 0.21456
323 4 0.262955 0.913295 0.19172
1359 2 0.381846 0.91019 0.191944
952 4 0.0625406 0.302746 0.0111779
1381 4 0.0529681 0.948826 0.229559
1380 2 0.0453112 0.917333 0.245368
95 4 0.0191237 0.963246 0.234208
1394 4 0.102248 0.982046 0.173489
174 2 0.131289 0.950354 0.227986
176 4 0.145814 0.943441 0.26026
1010 4 0.167049 0.971164 0.24997
1429 4 0.245902 0.010853 0.165659
1361 4 0.399562 0.918415 0.222257
322 4 0.287719 0.963313 0.2374
59 4 0.465586 0.198741 0.00158327
988 4 0.176511 0.132262 0.295019
404 4 0.364545 0.11527 0.290705
403 4 0.3457 0.174769 0.254562
402 2 0.355123 0.14502 0.272634
587 4 0.157011 0.133366 0.327593
158 4 0.360492 0.200593 0.232712
674 4 0.0940926 0.30284 0.281289
672 2 0.102991 0.336234 0.291589
673 4 0.111889 0.369627 0.301889
671 4 0.257222 0.311771 0.264216
1466 4 0.251433 0.279891 0.25205
669 2 0.223793 0.321364 0.273749
826 4 0.391943 0.273507 0.322031
1068 2 0.421487 0.303099 0.282642
1069 4 0.410791 0.269712 0.291087
670 4 0.190364 0.330957 0.283283
932 4 0.26184 0.403905 0.326559
930 2 0.26406 0.433062 0.305456
1070 4 0.432183 0.336486 0.274197
438 2 0.0919918 0.431708 0.252893
439 4 0.0592658 0.446602 0.255648
198 2 0.231705 0.513002 0.267273
931 4 0.26628 0.462219 0.284352
200 4 0.25525 0.497682 0.289885
639 2 0.440472 0.444874 0.283241
640 4 0.430117 0.434587 0.316216
641 4 0.450827 0.45516 0.250265
199 4 0.20816 0.528322 0.24466
1244 4 0.239632 0.549329 0.341404
539 4 0.317996 0.61065 0.286773
874 4 0.388083 0.506157 0.276815
614 4 0.393359 0.53557 0.296522
612 2 0.395543 0.541333 0.332052
1103 4 0.473071 0.484191 0.242503
449 4 0.0502053 0.62724 0.194408
354 2 0.0319828 0.647449 0.293581
355 4 0.0221737 0.640271 0.327533
1152 2 0.153699 0.786079 0.261548
1153 4 0.132077 0.788246 0.290326
299 4 0.214478 0.838416 0.332926
366 2 0.414826 0.823359 0.328931
297 2 0.2087 0.832354 0.297851
298 4 0.202922 0.826292 0.262776
559 4 0.473515 0.861464 0.312508
368 4 0.441778 0.847209 0.326641
1008 2 0.175041 0.987691 0.281008
1009 4 0.183034 0.00421679 0.312047
1453 4 0.437379 0.89735 0.214622
1452 2 0.463598 0.920573 0.20604
1454 4 0.489817 0.943797 0.197458
1288 4 0.0537101 0.0967182 0.416164
1287 2 0.0871968 0.0846621 0.410362
857 4 0.311311 0.0864594 0.383716
855 2 0.294234 0.106041 0.358709
856 4 0.277157 0.125623 0.333703
1030 4 0.343398 0.0824283 0.401851
1029 2 0.372104 0.0607622 0.404491
1031 4 0.40081 0.0390965 0.40713
989 4 0.243694 0.13276 0.321245
987 2 0.210103 0.132511 0.308132
1058 4 0.138018 0.209996 0.39317
586 4 0.128547 0.188244 0.364741
585 2 0.142779 0.160805 0.346167
181 4 0.236828 0.268487 0.352283
281 4 0.275082 0.945482 0.388203
1056 2 0.128066 0.243982 0.386367
1057 4 0.118114 0.277968 0.379564
182 4 0.282069 0.284105 0.406237
180 2 0.259449 0.276296 0.37926
964 4 0.406965 0.318066 0.406897
825 2 0.397478 0.277565 0.357433
827 4 0.403012 0.281624 0.392836
558 2 0.495373 0.833098 0.316748
1134 2 0.0995804 0.990404 0.462828
1022 4 0.0709912 0.359082 0.397399
1020 2 0.0881468 0.390503 0.393067
1021 4 0.105303 0.421925 0.388735
784 4 0.122348 0.401988 0.365005
783 2 0.152788 0.39206 0.348414
785 4 0.183228 0.382133 0.331824
343 4 0.484798 0.317567 0.34042
1242 2 0.250627 0.541169 0.374765
1243 4 0.261622 0.53301 0.408126
613 4 0.397728 0.547096 0.367583
356 4 0.0417919 0.654627 0.25963
262 4 0.165143 0.598575 0.43251
367 4 0.387875 0.79951 0.33122
245 4 0.0496904 0.90966 0.433173
243 2 0.0757253 0.910809 0.408248
244 4 0.10176 0.911958 0.383322
471 2 0.137201 0.965396 0.345544
473 4 0.121362 0.940202 0.365911
472 4 0.153039 0.99059 0.325177
280 4 0.27657 0.904549 0.32884
279 2 0.275826 0.925015 0.358521
1135 4 0.0811423 0.999868 0.492338
701 4 0.160837 0.0746431 0.486861
1289 4 0.120684 0.0726056 0.404562
699 2 0.134751 0.0677169 0.462947
334 4 0.3312 0.0858364 0.502612
974 4 0.488117 0.306806 0.466275
205 4 0.0170373 0.0881846 0.215408
840 2 0.377288 0.0686694 0.486817
842 4 0.345792 0.0736678 0.469981
129 2 0.478179 0.068678 0.468037
131 4 0.450934 0.0596004 0.489849
1172 4 0.421373 0.316422 0.0139232
700 4 0.108664 0.0607912 0.439031
926 4 0.327103 0.228031 0.466281
1328 4 0.440858 0.396951 0.0449212
616 4 0.402476 0.07274 0.0241698
683 4 0.0794143 0.73819 0.486358
226 4 0.485964 0.150678 0.412554
1062 2 0.0842472 0.3462 0.458381
1064 4 0.0894624 0.323186 0.485649
965 4 0.362847 0.326835 0.463273
963 2 0.384906 0.32245 0.435085
1396 4 0.354387 0.295301 0.478177
972 2 0.469846 0.283834 0.487223
1136 4 0.118019 0.980939 0.433318
1063 4 0.0790317 0.369213 0.431112
649 4 0.471234 0.944561 0.0743196
263 4 0.0958621 0.586349 0.416625
1272 2 0.216493 0.529065 0.4452
1273 4 0.240906 0.50998 0.426755
1274 4 0.19208 0.548149 0.463644
1262 4 0.345306 0.977326 0.49052
261 2 0.130503 0.592462 0.424568
1141 4 0.170577 0.635491 0.424692
1140 2 0.199699 0.654758 0.433698
1142 4 0.228823 0.674024 0.442703
584 4 0.266696 0.664782 0.446559
682 4 0.124108 0.729561 0.430415
681 2 0.101761 0.733876 0.458387
582 2 0.294932 0.687178 0.447802
583 4 0.323168 0.709575 0.449044
160 4 0.296372 0.732653 0.443039
1161 2 0.0413138 0.792167 0.494018
1163 4 0.0215108 0.821305 0.486321
159 2 0.298967 0.768617 0.443596
161 4 0.301562 0.80458 0.444153
907 4 0.311821 0.821372 0.412589
786 2 0.0163419 0.849738 0.441434
787 4 0.033524 0.877068 0.425364
906 2 0.31264 0.845661 0.43923
908 4 0.313458 0.869951 0.465871
333 2 0.29771 0.0945462 0.492463
924 2 0.336532 0.203947 0.49141
139 4 0.0268094 0.968391 0.0750978
335 4 0.264221 0.103256 0.482313
371 4 0.287027 0.408904 0.492578
247 4 0.474848 0.320406 0.00485628
240 2 0.239773 0.477107 0.00522712
179 4 0.0823884 0.772375 0.0128129
820 4 0.999087 0.505323 0.793857
642 2 0.19522 0.179318 0.519601
644 4 0.197555 0.145751 0.532573
454 4 0.492663 0.511211 0.729322
652 4 0.0104022 0.178735 0.733455
925 4 0.345962 0.179864 0.516539
324 2 0.198726 0.251912 0.545445
325 4 0.184898 0.218668 0.547452
643 4 0.192886 0.212884 0.506631
1212 2 0.384821 0.194035 0.571429
1213 4 0.368628 0.177497 0.543776
1214 4 0.401013 0.210573 0.599083
250 4 0.419639 0.188419 0.504988
249 2 0.447027 0.211352 0.509928
251 4 0.474414 0.234285 0.514868
467 4 0.114513 0.327867 0.507548
465 2 0.143082 0.314912 0.525334
326 4 0.212553 0.285157 0.543437
56 4 0.23445 0.319908 0.559306
55 4 0.303175 0.308721 0.540502
54 2 0.268811 0.314312 0.549903
1397 4 0.337074 0.331114 0.53834
1395 2 0.345734 0.313208 0.508257
504 2 0.435068 0.317804 0.601632
506 4 0.422396 0.313989 0.568086
466 4 0.171652 0.301956 0.54312
394 4 0.308369 0.340148 0.565686
369 2 0.294254 0.377808 0.509348
370 4 0.301482 0.346709 0.526121
285 2 0.405837 0.365415 0.543226
286 4 0.411657 0.388563 0.516194
287 4 0.400016 0.342267 0.570257
611 4 0.277104 0.436287 0.513533
609 2 0.270543 0.468351 0.528673
1164 2 0.309931 0.513098 0.592233
1076 4 0.446385 0.392363 0.513058
1074 2 0.473206 0.416244 0.509787
1075 4 0.500027 0.440126 0.506515
1513 4 0.0791745 0.53469 0.585271
1512 2 0.10239 0.523199 0.560183
1514 4 0.125606 0.51171 0.535095
610 4 0.263982 0.500416 0.543813
1166 4 0.282935 0.51791 0.568813
900 2 0.0064445 0.618277 0.550996
135 2 0.0950563 0.591928 0.52578
136 4 0.111688 0.623476 0.531119
42 3 0.164304 0.629148 0.536332
1013 4 0.12909 0.644067 0.555337
1011 2 0.125955 0.647117 0.591133
41 1 0.195809 0.636968 0.529476
45 3 0.21153 0.644038 0.557435
43 3 0.210409 0.610871 0.514452
1261 4 0.280454 0.998614 0.513816
44 3 0.19618 0.663537 0.509134
1331 4 0.264713 0.682351 0.605067
1162 4 0.0611168 0.76303 0.501714
137 4 0.0784244 0.56038 0.520442
259 4 0.31681 0.818134 0.60069
212 4 0.325934 0.795753 0.576431
167 4 0.407017 0.904767 0.507606
597 2 0.0577976 0.989936 0.545827
598 4 0.0668798 0.0146734 0.52121
599 4 0.0487155 0.9652 0.570444
165 2 0.378452 0.926635 0.510096
1384 4 0.154346 0.0607921 0.640902
1383 2 0.121973 0.076653 0.641794
155 4 0.258345 0.0502779 0.651943
153 2 0.24621 0.024811 0.62948
154 4 0.234076 0.999344 0.607018
1385 4 0.0895991 0.0925136 0.642687
152 4 0.213972 0.121003 0.656725
979 4 0.0607348 0.252224 0.64796
656 4 0.038641 0.266772 0.57342
535 4 0.226958 0.197194 0.663712
534 2 0.225096 0.217282 0.693602
655 4 0.0970785 0.230696 0.595446
654 2 0.0678598 0.248734 0.584433
661 4 0.119041 0.249335 0.613646
660 2 0.116567 0.274917 0.638941
224 4 0.352732 0.324534 0.65159
957 2 0.35457 0.294789 0.594704
959 4 0.330922 0.306637 0.570187
958 4 0.378216 0.282943 0.619218
505 4 0.447739 0.321618 0.635177
393 2 0.32217 0.366864 0.585599
395 4 0.335973 0.393577 0.605506
1267 4 0.144702 0.476174 0.587267
1266 2 0.141656 0.453124 0.614833
1165 4 0.336926 0.508286 0.615653
62 4 0.48627 0.483935 0.668031
1205 4 0.0330455 0.546913 0.620457
1203 2 0.0388665 0.579302 0.635204
1290 2 0.267849 0.570368 0.642803
1292 4 0.302267 0.561592 0.649033
689 4 0.413809 0.539494 0.62263
687 2 0.431479 0.570915 0.621685
688 4 0.449149 0.602336 0.62074
901 4 0.0331309 0.598739 0.536626
1308 2 0.0753235 0.657231 0.654784
1418 4 0.172058 0.64464 0.587612
1416 2 0.198494 0.630375 0.607564
1417 4 0.224929 0.61611 0.627516
239 4 0.219372 0.635824 0.654313
606 2 0.415545 0.64199 0.66467
608 4 0.408847 0.634392 0.63006
1130 4 0.380736 0.651387 0.621608
1012 4 0.122821 0.650166 0.626927
1310 4 0.103349 0.673886 0.639372
1329 2 0.291582 0.686738 0.58142
1330 4 0.318452 0.691124 0.557773
1129 4 0.369286 0.703454 0.573033
211 4 0.332073 0.724163 0.570199
1128 2 0.375012 0.67742 0.597321
561 2 0.0253835 0.771283 0.62126
562 4 0.0604921 0.763942 0.61753
710 4 0.232217 0.822844 0.667544
258 2 0.300252 0.849719 0.606036
210 2 0.329003 0.759958 0.573315
33 3 0.247746 0.879327 0.620573
31 1 0.259915 0.90301 0.640846
32 3 0.249544 0.932652 0.630149
260 4 0.283693 0.881304 0.611383
34 3 0.293371 0.902416 0.640315
317 4 0.0365308 0.942023 0.596897
315 2 0.0139122 0.951663 0.623277
1301 4 0.493357 0.0651456 0.920526
633 2 0.111297 0.956546 0.640684
634 4 0.145587 0.967312 0.643647
635 4 0.0770084 0.945781 0.637722
1156 4 0.486441 0.979411 0.574856
1155 2 0.474733 0.988484 0.607735
1157 4 0.463025 0.997558 0.640613
151 4 0.272687 0.0796346 0.663272
1199 4 0.30348 0.122312 0.749942
1197 2 0.302633 0.0932859 0.72856
1198 4 0.301786 0.0642599 0.707178
150 2 0.24333 0.100318 0.659998
980 4 0.0348018 0.192854 0.679651
978 2 0.0477684 0.222539 0.663806
572 4 0.139671 0.282907 0.681442
304 4 0.47709 0.201431 0.733066
662 4 0.114092 0.300499 0.664236
570 2 0.139003 0.26934 0.714847
536 4 0.223234 0.23737 0.723492
1196 4 0.199568 0.26492 0.719838
571 4 0.138336 0.255772 0.748251
1194 2 0.219277 0.28758 0.7398
223 4 0.333079 0.326685 0.720949
222 2 0.342906 0.32561 0.686269
461 4 0.0551233 0.385601 0.705444
459 2 0.0342746 0.392061 0.73415
973 4 0.451575 0.260862 0.508172
1493 4 0.475848 0.358141 0.662215
1268 4 0.13861 0.430075 0.642397
1437 2 0.198053 0.491028 0.742557
294 2 0.267991 0.448774 0.733708
295 4 0.246138 0.477448 0.732898
1316 4 0.377158 0.505 0.769799
60 2 0.486556 0.450196 0.680758
61 4 0.486842 0.416456 0.693484
1439 4 0.170253 0.503709 0.723406
1291 4 0.233431 0.579144 0.636573
841 4 0.408784 0.063671 0.503653
1204 4 0.0446874 0.61169 0.649952
1309 4 0.047297 0.640576 0.670197
77 4 0.179059 0.631871 0.750474
75 2 0.208402 0.615422 0.737481
1040 4 0.2743 0.649177 0.732058
1038 2 0.292318 0.620593 0.744656
607 4 0.422243 0.649588 0.699279
396 2 0.154691 0.659 0.698862
432 2 0.189736 0.743502 0.668519
398 4 0.160174 0.686626 0.676342
433 4 0.171475 0.714694 0.656813
237 2 0.244374 0.657141 0.669176
238 4 0.269375 0.678458 0.684039
117 2 0.320817 0.743928 0.702789
995 4 0.391007 0.659754 0.717417
993 2 0.365167 0.684907 0.717532
994 4 0.339326 0.71006 0.717647
680 4 0.393029 0.748681 0.707102
118 4 0.356107 0.738542 0.707892
120 2 0.468236 0.705677 0.749369
1300 4 0.431145 0.0364772 0.943096
708 2 0.197758 0.831725 0.673384
1000 4 0.239866 0.791507 0.678288
999 2 0.261625 0.795456 0.706772
434 4 0.207998 0.77231 0.680224
119 4 0.285527 0.749314 0.697686
1001 4 0.283384 0.799404 0.735257
678 2 0.387981 0.782357 0.71897
679 4 0.382933 0.816033 0.730838
836 4 0.146901 0.852489 0.705826
709 4 0.163299 0.840606 0.679224
834 2 0.132103 0.84127 0.736738
35 3 0.249106 0.898174 0.671482
1246 4 0.231313 0.904044 0.698703
1483 4 0.0214811 0.324752 0.499342
675 2 0.00967006 0.975618 0.703083
1390 4 0.116424 0.996054 0.805988
1245 2 0.227839 0.915857 0.732596
742 4 0.160882 0.0854473 0.852152
1048 4 0.463406 0.0528554 0.815503
409 4 0.152835 0.0947996 0.819084
1193 4 0.364109 0.131737 0.844427
1191 2 0.396889 0.118123 0.850796
962 4 0.374684 0.136333 0.811284
1192 4 0.429668 0.104509 0.857166
305 4 0.472893 0.137946 0.767029
303 2 0.474992 0.169688 0.750047
593 4 0.243597 0.176994 0.775287
591 2 0.256403 0.201642 0.798285
592 4 0.269209 0.226291 0.821282
961 4 0.322758 0.175127 0.779657
960 2 0.348721 0.15573 0.795471
488 4 0.0637457 0.292343 0.787818
622 4 0.0907959 0.312855 0.795946
621 2 0.119201 0.292137 0.787927
623 4 0.147606 0.271419 0.779909
1195 4 0.238986 0.31024 0.759762
546 2 0.14778 0.386886 0.814106
548 4 0.140435 0.411091 0.788404
565 4 0.298521 0.396811 0.761988
564 2 0.280079 0.379304 0.787558
566 4 0.261637 0.361798 0.813128
547 4 0.155124 0.362681 0.839809
85 4 0.129323 0.484944 0.86808
1438 4 0.225853 0.478348 0.761708
296 4 0.289844 0.4201 0.734517
184 4 0.0817865 0.530577 0.773647
185 4 0.135276 0.499103 0.736906
183 2 0.108531 0.51484 0.755276
76 4 0.237744 0.598973 0.724488
1080 2 0.29818 0.554566 0.813374
1082 4 0.313739 0.569651 0.78455
1039 4 0.310335 0.592009 0.757254
1314 2 0.344483 0.518676 0.763036
1315 4 0.311808 0.532352 0.756273
935 4 0.384048 0.568507 0.807966
1108 4 0.493468 0.564314 0.811659
934 4 0.39596 0.61992 0.758808
933 2 0.390004 0.594213 0.783387
882 2 0.479163 0.641195 0.814035
883 4 0.468347 0.619782 0.840959
397 4 0.14921 0.631374 0.721383
82 4 0.408365 0.720192 0.849141
81 2 0.425613 0.716577 0.817679
236 4 0.424776 0.721431 0.882757
83 4 0.442861 0.712961 0.786218
122 4 0.432931 0.71208 0.752968
337 4 0.478396 0.697169 0.804811
108 2 0.0914573 0.811187 0.806645
109 4 0.124995 0.807013 0.794069
835 4 0.117305 0.830052 0.76765
799 4 0.250885 0.752275 0.80543
798 2 0.246061 0.787426 0.798982
345 2 0.268191 0.864803 0.794724
347 4 0.245137 0.847906 0.816709
346 4 0.291246 0.881701 0.772739
911 4 0.353682 0.909848 0.843625
676 4 0.0171558 0.961872 0.73557
464 4 0.0517509 0.981537 0.734339
462 2 0.0656417 0.983006 0.767585
1389 2 0.145366 0.976955 0.796085
463 4 0.0795327 0.984474 0.800831
1247 4 0.224363 0.92767 0.76649
1391 4 0.174307 0.957857 0.786182
428 4 0.203896 0.96583 0.807356
426 2 0.236382 0.980394 0.8131
278 4 0.330907 0.908738 0.818564
427 4 0.268867 0.994958 0.818844
276 2 0.34617 0.939842 0.808565
277 4 0.361433 0.970946 0.798566
1190 4 0.476204 0.887187 0.806076
166 4 0.349886 0.948503 0.512586
458 4 0.456095 0.914525 0.822605
556 4 0.0838897 0.0824032 0.892842
741 2 0.15309 0.0587084 0.875058
1016 4 0.132734 0.999547 0.890608
743 4 0.145297 0.0319695 0.897965
555 2 0.0821477 0.0973833 0.925598
410 4 0.217621 0.125229 0.827939
408 2 0.185228 0.110015 0.823512
469 4 0.236158 0.116208 0.858138
468 2 0.268415 0.109722 0.872896
470 4 0.300672 0.103236 0.887654
998 4 0.311391 0.130142 0.910573
996 2 0.344077 0.141954 0.900955
487 4 0.0337135 0.243648 0.831732
1423 4 0.477656 0.169793 0.852461
1422 2 0.491651 0.201564 0.862214
486 2 0.0487298 0.267996 0.809776
1085 4 0.0347974 0.258577 0.863499
1083 2 0.0311224 0.261626 0.899243
87 2 0.166522 0.267805 0.903549
89 4 0.140543 0.292805 0.904243
88 4 0.192502 0.242805 0.902854
790 4 0.27931 0.324608 0.858722
789 2 0.30747 0.320036 0.836666
791 4 0.335631 0.315465 0.814609
1005 2 0.386464 0.282586 0.848206
1007 4 0.410726 0.273282 0.87321
302 4 0.384636 0.282522 0.897581
106 4 0.286969 0.37938 0.837852
105 2 0.299773 0.408471 0.854889
1006 4 0.362202 0.291889 0.823202
1402 4 0.359415 0.373483 0.890447
821 4 0.0457041 0.475564 0.840148
819 2 0.0223958 0.490444 0.817003
86 4 0.071668 0.497855 0.826718
84 2 0.100496 0.4914 0.847399
1241 4 0.223591 0.497734 0.894343
107 4 0.312576 0.437561 0.871925
146 4 0.323457 0.468039 0.889784
144 2 0.319647 0.49492 0.86605
1143 2 0.483734 0.529652 0.900389
1239 2 0.190258 0.503032 0.881642
1240 4 0.156926 0.50833 0.868941
1081 4 0.282621 0.539481 0.842197
145 4 0.315837 0.5218 0.842315
1481 4 0.375205 0.543524 0.838638
1479 2 0.395457 0.535332 0.867328
1480 4 0.415709 0.527139 0.896019
1353 2 0.440065 0.600034 0.882825
1354 4 0.464573 0.585412 0.90487
1144 4 0.466293 0.547093 0.926696
1027 4 0.402831 0.512989 0.993758
1355 4 0.415557 0.614656 0.86078
235 4 0.434667 0.678185 0.939622
234 2 0.429722 0.699808 0.91119
884 4 0.48998 0.66261 0.787112
110 4 0.0579192 0.81536 0.819223
940 4 0.178021 0.834191 0.906128
1436 4 0.198659 0.806414 0.912501
800 4 0.241238 0.822576 0.792535
214 4 0.298373 0.79166 0.897515
1160 4 0.19477 0.904376 0.90959
909 2 0.351393 0.874132 0.848051
910 4 0.349104 0.838417 0.852478
3 3 0.0252999 0.964503 0.888794
4 3 0.0643456 0.929176 0.904023
1014 2 0.153893 0.988924 0.917807
457 4 0.39199 0.944472 0.808623
456 2 0.424043 0.929499 0.815615
877 4 0.292551 0.0133874 0.965957
876 2 0.29002 0.040213 0.941991
878 4 0.287489 0.0670389 0.918024
1051 4 0.354082 0.995273 0.903586
400 4 0.479025 0.0723877 0.888344
1299 2 0.46225 0.0508116 0.931811
557 4 0.0804058 0.112363 0.958354
997 4 0.376763 0.153766 0.891337
953 4 0.0125679 0.274867 0.967279
58 4 0.464253 0.255601 0.957235
301 4 0.431509 0.257969 0.946587
1334 4 0.158683 0.434163 0.995566
57 2 0.464919 0.227171 0.979409
1084 4 0.0274472 0.264674 0.934986
951 2 0.0375542 0.288806 0.989228
937 4 0.157913 0.658817 0.966411
266 4 0.185397 0.3161 0.961427
1171 4 0.400405 0.348019 0.952576
300 2 0.408072 0.270246 0.922085
1170 2 0.410889 0.33222 0.983249
246 2 0.495973 0.331532 0.977831
1097 4 0.000522784 0.804666 0.739627
264 2 0.155071 0.324551 0.979013
265 4 0.124744 0.333002 0.996599
1403 4 0.371253 0.36058 0.960411
1401 2 0.365334 0.367031 0.925429
677 4 0.00218476 0.989365 0.670596
1090 4 0.497504 0.60036 0.910469
1147 4 0.0986873 0.512678 0.958929
1146 2 0.0953793 0.476986 0.954987
1148 4 0.0920714 0.441294 0.951044
399 2 0.493228 0.0832171 0.857017
1047 2 0.488206 0.0436393 0.790999
241 4 0.216793 0.470353 0.978269
1028 4 0.43356 0.52903 0.930511
1026 2 0.418195 0.52101 0.962135
5 3 0.0218788 0.938757 0.936482
936 2 0.175458 0.632817 0.984203
1060 4 0.123581 0.68256 0.976949
1059 2 0.0888635 0.676269 0.969495
938 4 0.193003 0.606816 0.00199542
1366 4 0.228065 0.609511 0.998675
1365 2 0.26123 0.616491 0.986358
1367 4 0.294396 0.623472 0.974042
1468 4 0.316137 0.596754 0.969803
1469 4 0.338257 0.624443 0.906988
1467 2 0.327197 0.610599 0.938396
1230 2 0.0409201 0.740087 0.993227
1061 4 0.0541465 0.669977 0.962041
1231 4 0.0305445 0.705633 0.990846
1200 2 0.325684 0.715235 0.978656
1232 4 0.0512953 0.774542 0.995608
939 2 0.143318 0.840305 0.898463
1434 2 0.230577 0.798454 0.897725
1435 4 0.262495 0.790493 0.88295
213 2 0.322103 0.777149 0.920467
1201 4 0.341382 0.726179 0.948091
215 4 0.345832 0.762638 0.943418
293 4 0.0178329 0.843376 0.944962
291 2 0.0296697 0.870763 0.924707
292 4 0.0415066 0.898149 0.904452
941 4 0.108616 0.84642 0.890799
1158 2 0.226444 0.90317 0.926787
30 3 0.321795 0.918352 0.948405
27 3 0.357642 0.879035 0.95656
28 3 0.348979 0.915896 0.99535
26 1 0.350625 0.91095 0.962293
1491 2 0.490893 0.325489 0.659396
2 3 0.0591872 0.976877 0.929253
1 1 0.0424991 0.952163 0.914713
1015 4 0.175053 0.978301 0.945007
1159 4 0.258118 0.901964 0.943983
1259 4 0.286692 0.920346 0.95815
1257 2 0.284402 0.955441 0.950184
1258 4 0.282113 0.990537 0.942217
1052 4 0.401328 0.960318 0.945391
1050 2 0.377705 0.977796 0.924488
29 3 0.374853 0.929894 0.949099
617 4 0.460959 0.0958032 0.988823
1456 4 0.498378 0.470116 0.525871
1112 4 0.999954 0.83823 0.912889
460 4 0.013426 0.398523 0.762855
1260 2 0.31288 0.98797 0.502168
1494 2 0.655858 0.038565 0.012381
1496 4 0.623787 0.0241961 0.0204699
268 4 0.71335 0.0909812 0.066535
549 2 0.971471 0.391272 0.405141
1442 4 0.956784 0.965623 0.0938191
1440 2 0.940871 0.996962 0.0857563
8 3 0.592828 0.127151 0.0158523
10 3 0.607125 0.165867 0.0511438
9 3 0.628633 0.116232 0.055892
7 3 0.642648 0.148477 0.0146339
6 1 0.617659 0.139553 0.0345475
208 4 0.951891 0.245556 0.0177615
207 2 0.927396 0.220706 0.00865754
1045 4 0.942437 0.28273 0.0273802
530 4 0.697808 0.28127 0.0898105
377 4 0.698921 0.307542 0.0653081
1348 4 0.772986 0.316464 0.0674821
1125 2 0.812381 0.271843 0.00660127
1127 4 0.831675 0.278689 0.0362884
1504 4 0.86639 0.261739 0.0419485
1503 2 0.866549 0.239597 0.070411
1505 4 0.866708 0.217455 0.0988735
788 4 0.99916 0.822407 0.457503
1433 4 0.630529 0.445739 0.127429
375 2 0.693115 0.342064 0.0739646
376 4 0.68731 0.376586 0.0826214
1347 2 0.771064 0.345755 0.0465363
1349 4 0.769143 0.375047 0.0255906
229 4 0.995402 0.427001 0.100217
553 4 0.765412 0.4491 0.0700455
1321 4 0.935314 0.481492 0.00898876
1320 2 0.918146 0.467304 0.0373499
96 2 0.612498 0.543818 0.0995253
98 4 0.643216 0.540586 0.080922
1346 4 0.650772 0.564927 0.0488893
290 4 0.820294 0.553373 0.0679155
1406 4 0.53382 0.646632 0.0667318
1404 2 0.546379 0.665459 0.0386567
551 4 0.964513 0.359315 0.420331
1344 2 0.631475 0.583159 0.0244869
288 2 0.82909 0.588334 0.0670622
289 4 0.837886 0.623296 0.066209
1405 4 0.558938 0.684285 0.0105804
94 4 0.96436 0.00671769 0.251894
627 2 0.805474 0.662706 0.0433102
628 4 0.819986 0.630815 0.0347804
112 4 0.936932 0.712346 0.0376961
364 4 0.776671 0.840755 0.0586739
363 2 0.812392 0.84165 0.0538092
67 4 0.960535 0.81542 0.124191
1420 4 0.518577 0.8709 0.0164869
68 4 0.988408 0.872044 0.0892849
482 4 0.945312 0.878261 0.00373375
772 4 0.719451 0.97467 0.0714607
771 2 0.689421 0.993744 0.077356
111 2 0.925563 0.703823 0.0045525
1041 2 0.862322 0.959345 0.0141165
481 4 0.934414 0.915415 0.0645811
480 2 0.939863 0.896838 0.0341575
1463 4 0.653737 0.0432189 0.162746
1461 2 0.644016 0.0752078 0.149232
269 4 0.784357 0.0822512 0.0756673
267 2 0.748853 0.086616 0.0711013
256 4 0.865006 0.00252693 0.1793
1118 4 0.502352 0.106418 0.146083
1462 4 0.634295 0.107197 0.135718
860 4 0.895604 0.119848 0.141255
101 4 0.923678 0.103186 0.153496
858 2 0.91151 0.112779 0.109673
859 4 0.927416 0.105712 0.0780905
690 2 0.519416 0.265197 0.125505
529 4 0.662073 0.245446 0.141204
528 2 0.67994 0.263358 0.115508
985 4 0.630456 0.232434 0.15341
1044 2 0.972063 0.303097 0.0301984
227 4 0.52937 0.197055 0.446713
220 4 0.499697 0.40547 0.120154
221 4 0.500534 0.346774 0.162054
219 2 0.500116 0.376122 0.141104
1183 4 0.762172 0.369106 0.139293
383 4 0.798025 0.372022 0.141771
381 2 0.80435 0.351584 0.1708
1182 2 0.761499 0.39265 0.111987
230 4 0.92459 0.416721 0.0911847
228 2 0.959996 0.421861 0.095701
1431 2 0.635383 0.412201 0.115097
1432 4 0.640237 0.378664 0.102765
770 4 0.653791 0.517135 0.0529994
870 2 0.604005 0.509861 0.169691
872 4 0.579546 0.534145 0.159086
768 2 0.683607 0.511113 0.0723684
1184 4 0.760826 0.416195 0.0846806
552 2 0.75476 0.475466 0.0922209
485 4 0.851226 0.438227 0.160643
90 2 0.87005 0.483382 0.113024
92 4 0.896355 0.481793 0.0884077
1322 4 0.900977 0.453117 0.065711
97 4 0.581778 0.547049 0.118134
769 4 0.713425 0.505089 0.0917358
554 4 0.744107 0.501832 0.114396
809 4 0.80355 0.571812 0.16579
808 4 0.853535 0.521667 0.152063
807 2 0.828543 0.546739 0.158926
91 4 0.843743 0.48497 0.137637
757 4 0.874476 0.488862 0.163913
1121 4 0.502236 0.583396 0.142555
1187 4 0.518144 0.585897 0.111314
1186 4 0.555363 0.644003 0.0903364
1185 2 0.536753 0.61495 0.100825
413 4 0.707819 0.530482 0.1246
442 4 0.724865 0.661392 0.119906
411 2 0.687666 0.545025 0.150731
412 4 0.667513 0.559568 0.176861
567 2 0.74405 0.606063 0.143556
569 4 0.717574 0.627947 0.132578
568 4 0.770527 0.584179 0.154534
716 4 0.903389 0.638915 0.12644