ITEM: TIMESTEP
1231000
ITEM: NUMBER OF ATOMS
1520
ITEM: BOX BOUNDS pp pp pp
-6.9326749999999997e+00 6.9326749999999997e+00
-6.9326749999999997e+00 6.9326749999999997e+00
-6.9326749999999997e+00 6.9326749999999997e+00
ITEM: ATOMS id type xs ys zs
1002 2 0.0519996 0.0618267 0.0149643
1003 4 0.0643343 0.0279488 0.0142192
439 4 0.224002 0.0683366 0.000295455
1004 4 0.0396654 0.0957051 0.0157095
1408 4 0.200135 0.0914529 0.0142437
1407 2 0.204772 0.127161 0.0162057
1409 4 0.209408 0.16287 0.0181678
1174 4 0.137606 0.902583 0.500281
308 4 0.049401 0.202106 0.0820422
306 2 0.0276621 0.23087 0.0813946
770 4 0.220431 0.1629 0.0521229
768 2 0.215662 0.197228 0.0620851
1483 4 0.317527 0.218581 0.0199688
1197 2 0.00149382 0.318924 0.0558435
500 4 0.489676 0.252451 0.455943
17 3 0.0808548 0.353271 0.0641961
1509 2 0.0222255 0.411411 0.383329
1482 2 0.332272 0.24607 0.0380601
1198 4 0.019737 0.314685 0.0250269
18 3 0.0828223 0.387918 0.0225537
16 1 0.0746345 0.356816 0.031801
1252 4 0.19235 0.326853 0.0368399
847 4 0.165763 0.417659 0.00540906
1251 2 0.163612 0.341557 0.0529134
694 4 0.274451 0.380474 0.0771273
510 2 0.48976 0.373691 0.0348205
511 4 0.47997 0.373693 0.000113648
93 2 0.0971218 0.43538 0.0953755
95 4 0.128098 0.428589 0.0782059
1085 4 0.15898 0.451829 0.072872
846 2 0.201359 0.415792 0.999951
553 4 0.4872 0.961856 0.289293
695 4 0.243347 0.424375 0.0290978
693 2 0.258899 0.402425 0.0531125
987 2 0.387089 0.521058 0.101562
801 2 0.258377 0.572741 0.0617529
802 4 0.261764 0.537185 0.0667255
988 4 0.403902 0.527922 0.070406
922 4 0.431101 0.526674 0.0451611
921 2 0.451638 0.527563 0.0155328
239 4 0.454693 0.529083 0.0723083
1510 4 0.0120621 0.445971 0.384985
803 4 0.25499 0.608297 0.0567805
23 3 0.290371 0.676543 0.0425064
315 2 0.35862 0.671896 0.0117761
1208 4 0.461508 0.243987 0.185412
1472 4 0.433421 0.602802 0.0311479
149 4 0.0936146 0.736899 0.00646222
147 2 0.114327 0.735644 0.0359557
21 1 0.310038 0.672935 0.0693414
24 3 0.296466 0.688562 0.0956373
316 4 0.374806 0.677269 0.0435497
25 3 0.339841 0.685266 0.0631319
148 4 0.135039 0.734389 0.0654487
52 4 0.119794 0.779844 0.0697614
223 4 0.276331 0.827023 0.0472966
480 2 0.0843628 0.889446 0.0101592
482 4 0.090867 0.893227 0.0454265
222 2 0.287901 0.857475 0.031828
224 4 0.299471 0.887925 0.0163591
679 4 0.0214286 0.269312 0.112925
416 4 0.182551 0.558417 0.0224132
433 4 0.0634536 0.0657174 0.0694717
432 2 0.0921517 0.063472 0.091193
602 4 0.140805 0.0883505 0.125115
434 4 0.120849 0.0612263 0.112914
600 2 0.173041 0.0723882 0.122564
601 4 0.205276 0.0564262 0.120013
691 4 0.289871 0.086373 0.117159
185 4 0.353778 0.0515372 0.13851
183 2 0.330884 0.0793985 0.138494
618 2 0.0354344 0.15155 0.16728
620 4 0.0358279 0.152792 0.131242
692 4 0.218159 0.0888711 0.109898
184 4 0.307991 0.10726 0.138476
690 2 0.254015 0.087622 0.113529
769 4 0.210894 0.231556 0.072047
678 2 0.0162851 0.289012 0.142689
307 4 0.00592237 0.259635 0.0807474
826 4 0.114031 0.324582 0.188341
1259 4 0.00724201 0.399475 0.125187
1257 2 0.00870853 0.374532 0.15119
206 4 0.12817 0.352501 0.172569
204 2 0.137459 0.351742 0.137733
205 4 0.146749 0.350983 0.102897
1253 4 0.134874 0.35626 0.0689862
512 4 0.499552 0.373689 0.0695271
960 2 0.0868739 0.456356 0.172239
962 4 0.081129 0.433939 0.144584
94 4 0.0661462 0.44217 0.112545
989 4 0.370275 0.514195 0.132717
103 4 0.0395701 0.508351 0.10334
396 2 0.0862053 0.534833 0.0789894
397 4 0.0513467 0.526349 0.0753447
1083 2 0.156739 0.487799 0.0716425
1084 4 0.154496 0.523771 0.0704145
398 4 0.121066 0.543318 0.0826336
460 4 0.155687 0.563993 0.0778644
237 2 0.486526 0.519387 0.0862026
459 2 0.163928 0.599101 0.0775118
461 4 0.172166 0.634206 0.0771583
1471 4 0.450312 0.606659 0.101158
1470 2 0.441866 0.60473 0.0661537
508 4 0.0470979 0.745446 0.0674912
970 4 0.153341 0.743646 0.142182
22 3 0.312822 0.640623 0.0763305
653 4 0.378214 0.466161 0.475177
507 2 0.0232128 0.770934 0.0764474
51 2 0.151666 0.795921 0.0748765
53 4 0.183537 0.811997 0.0799923
502 4 0.0948348 0.830133 0.160568
969 2 0.175133 0.746913 0.170727
428 4 0.200343 0.808674 0.114495
426 2 0.228821 0.807433 0.0924063
427 4 0.257299 0.806195 0.0703188
1517 4 0.447388 0.784492 0.193299
1515 2 0.458515 0.794014 0.160345
1516 4 0.469642 0.803535 0.127392
1428 2 0.053089 0.831668 0.153572
1430 4 0.0332018 0.851213 0.176439
1460 4 0.382242 0.844831 0.0907059
1458 2 0.414611 0.838129 0.105119
1459 4 0.44698 0.831428 0.119531
97 4 0.326153 0.983784 0.106981
98 4 0.346269 0.943738 0.16349
96 2 0.336212 0.963761 0.135236
446 4 0.438869 0.0983498 0.230312
444 2 0.444573 0.0628044 0.228211
445 4 0.450278 0.0272585 0.226111
1139 4 0.471464 0.998873 0.206281
1137 2 0.493421 0.994811 0.177964
458 4 0.0516225 0.148321 0.236372
619 4 0.0350409 0.150308 0.203317
1180 4 0.217354 0.194417 0.182288
1450 4 0.470695 0.201011 0.244176
1449 2 0.46479 0.165791 0.239166
1451 4 0.458886 0.130571 0.234155
456 2 0.0630784 0.182513 0.236067
115 4 0.0441778 0.222582 0.21539
457 4 0.0745339 0.216704 0.235762
1179 2 0.219332 0.197629 0.218152
1181 4 0.221311 0.200842 0.254015
518 4 0.245557 0.172355 0.249278
114 2 0.0368943 0.25756 0.210504
680 4 0.0111444 0.308719 0.172461
827 4 0.0420107 0.328111 0.190383
116 4 0.0296041 0.292538 0.205618
667 4 0.00552495 0.325059 0.209233
830 4 0.039962 0.323504 0.23073
825 2 0.0780273 0.326341 0.189362
264 2 0.483341 0.363072 0.186031
955 4 0.3251 0.318179 0.490419
1258 4 0.010178 0.349585 0.177207
272 4 0.027936 0.358694 0.213146
270 2 0.0473201 0.389087 0.214544
271 4 0.0666976 0.419467 0.215935
19 3 0.0929981 0.334623 0.0147659
328 4 0.117215 0.472927 0.224378
961 4 0.0926191 0.478775 0.199895
908 4 0.416871 0.458781 0.259162
906 2 0.413581 0.442984 0.226912
907 4 0.41029 0.427187 0.194662
809 4 0.431582 0.522585 0.266283
1469 4 0.317603 0.651145 0.196495
1467 2 0.307218 0.640284 0.229275
490 4 0.442723 0.58202 0.227804
1217 4 0.204804 0.743799 0.233135
1215 2 0.194419 0.710122 0.240777
1468 4 0.296833 0.629423 0.262056
682 4 0.362679 0.680887 0.267306
681 2 0.365421 0.716651 0.271027
707 4 0.0548272 0.776955 0.250168
705 2 0.045373 0.743871 0.239374
706 4 0.0359181 0.710788 0.22858
971 4 0.196926 0.75018 0.199273
931 4 0.0874441 0.981008 0.195205
1429 4 0.0729761 0.812124 0.130705
501 2 0.126251 0.834726 0.177667
503 4 0.157667 0.839319 0.194766
1278 2 0.390759 0.8596 0.221088
1280 4 0.370539 0.867074 0.192179
932 4 0.0295913 0.974606 0.237791
930 2 0.0585175 0.977808 0.216497
1015 4 0.208958 0.0180982 0.213219
1014 2 0.242656 0.00536311 0.211583
795 2 0.317661 0.936499 0.203351
797 4 0.344404 0.916641 0.189535
1143 2 0.00798426 0.0708926 0.351561
1144 4 0.0340332 0.0544255 0.332834
732 2 0.345844 0.00511503 0.352616
733 4 0.377954 0.988763 0.351221
1402 4 0.165831 0.0855693 0.331732
1401 2 0.15182 0.111868 0.311422
719 4 0.128742 0.195624 0.325032
717 2 0.154498 0.200347 0.300236
718 4 0.180254 0.205068 0.275442
516 2 0.265899 0.175872 0.278845
517 4 0.28624 0.179389 0.308413
828 2 0.0485682 0.326997 0.265585
829 4 0.0571688 0.330492 0.30043
20 3 0.0426915 0.351524 0.0262766
265 4 0.463313 0.387624 0.20325
327 2 0.0907312 0.476731 0.248555
1105 4 0.0426696 0.474418 0.300197
329 4 0.0642478 0.480535 0.272732
1406 4 0.236707 0.498115 0.262416
1404 2 0.237085 0.492719 0.298069
1153 4 0.406492 0.485157 0.402212
207 2 0.032958 0.58121 0.307139
208 4 0.00452129 0.56611 0.290898
282 2 0.303896 0.590008 0.294236
284 4 0.328035 0.567907 0.279094
807 2 0.463545 0.518146 0.250188
283 4 0.279757 0.61211 0.309377
325 4 0.126411 0.412526 0.454242
489 2 0.474108 0.598435 0.234581
1216 4 0.184034 0.676445 0.24842
67 4 0.28824 0.645775 0.295012
66 2 0.290598 0.673938 0.317412
68 4 0.292954 0.702099 0.339813
523 4 0.318707 0.729252 0.346289
1113 2 0.473226 0.703105 0.271209
1114 4 0.451995 0.677433 0.257404
448 4 0.161849 0.804767 0.367498
683 4 0.368163 0.752415 0.274748
832 4 0.275282 0.811894 0.319094
1363 4 0.335323 0.765165 0.268067
1364 4 0.294017 0.821121 0.287158
1362 2 0.31467 0.793144 0.277613
1115 4 0.494458 0.728776 0.285013
1279 4 0.410978 0.852127 0.249997
938 4 0.418343 0.854661 0.286382
936 2 0.451494 0.857212 0.300342
937 4 0.484646 0.859764 0.314302
899 4 0.000420815 0.976533 0.263019
1016 4 0.276354 0.992627 0.209948
796 4 0.290918 0.956358 0.217166
385 4 0.0456059 0.996294 0.320587
473 4 0.0609308 0.0575284 0.352815
471 2 0.0771087 0.0675723 0.383438
296 4 0.125177 0.0186651 0.359352
294 2 0.15125 0.0356555 0.341133
295 4 0.177324 0.0526454 0.322914
820 4 0.287102 0.0426082 0.351936
734 4 0.313734 0.0214669 0.354012
819 2 0.255511 0.0585791 0.358814
1403 4 0.13781 0.138166 0.291112
521 4 0.255533 0.175306 0.330914
821 4 0.223919 0.0745503 0.365692
520 4 0.222892 0.115667 0.354988
519 2 0.239213 0.145486 0.342951
737 4 0.386164 0.156329 0.393554
775 4 0.128724 0.188963 0.367233
774 2 0.162724 0.180808 0.376064
539 4 0.0629655 0.274082 0.4099
537 2 0.0788065 0.294996 0.43464
1285 4 0.398884 0.29517 0.351871
1286 4 0.467354 0.295462 0.374531
1284 2 0.43312 0.295316 0.363201
1112 4 0.47902 0.300695 0.410152
1511 4 0.0323884 0.376852 0.381672
1370 4 0.364481 0.366538 0.375135
959 4 0.344093 0.397091 0.379487
957 2 0.318971 0.400501 0.405132
1369 4 0.387972 0.319504 0.325764
1368 2 0.376226 0.34302 0.35045
1108 4 0.420357 0.399331 0.379383
1107 2 0.408647 0.383376 0.409528
1104 2 0.0221978 0.472299 0.329808
1106 4 0.00172453 0.470182 0.359418
256 4 0.21811 0.472142 0.404388
1405 4 0.237465 0.487323 0.333723
35 3 0.230875 0.468589 0.367835
1152 2 0.405168 0.460374 0.376049
1154 4 0.403843 0.435592 0.349887
209 4 0.0613951 0.59631 0.323379
535 4 0.0302698 0.646554 0.383187
677 4 0.120369 0.584423 0.404424
32 3 0.214223 0.510103 0.397775
33 3 0.23981 0.519404 0.350901
31 1 0.238074 0.499148 0.377483
34 3 0.267216 0.499362 0.393933
1295 4 0.288542 0.525187 0.407921
534 2 0.0557318 0.631967 0.404146
536 4 0.0811939 0.61738 0.425107
675 2 0.129395 0.606642 0.377495
676 4 0.138421 0.628863 0.350565
578 4 0.156897 0.659827 0.360276
1293 2 0.294411 0.554179 0.428546
1294 4 0.300281 0.583172 0.449171
60 2 0.412962 0.614419 0.366446
62 4 0.430432 0.588818 0.384879
449 4 0.149452 0.733733 0.366017
576 2 0.176972 0.687666 0.371341
577 4 0.197047 0.715504 0.382405
800 4 0.308537 0.673609 0.404465
435 2 0.410408 0.697805 0.384598
522 2 0.353131 0.736943 0.353788
436 4 0.403988 0.662459 0.387742
301 4 0.445311 0.743053 0.368528
437 4 0.416824 0.733152 0.381453
300 2 0.479565 0.738974 0.379036
447 2 0.155651 0.76925 0.366758
831 2 0.254391 0.79063 0.339388
833 4 0.233501 0.769367 0.359683
842 4 0.39813 0.772737 0.385586
524 4 0.387556 0.744634 0.361288
840 2 0.384003 0.805428 0.37991
663 2 0.360761 0.863297 0.484874
1052 4 0.289296 0.855088 0.39084
1050 2 0.313194 0.854497 0.417838
1051 4 0.337092 0.853905 0.444836
841 4 0.369877 0.838117 0.374233
384 2 0.080374 0.990828 0.328442
386 4 0.115142 0.985362 0.336298
472 4 0.0932865 0.0776159 0.414062
399 2 0.220661 0.0305827 0.431365
400 4 0.209444 0.99643 0.428508
401 4 0.231877 0.0647359 0.434223
1484 4 0.347018 0.273559 0.0561512
187 4 0.196203 0.145236 0.408588
188 4 0.198774 0.0809266 0.441136
186 2 0.197488 0.113082 0.424862
776 4 0.196724 0.172654 0.384893
735 2 0.392539 0.133037 0.420337
1069 4 0.378414 0.108618 0.479129
1446 2 0.481028 0.997747 0.473969
320 4 0.282465 0.218685 0.4533
319 4 0.28468 0.192491 0.38614
318 2 0.283572 0.205588 0.41972
736 4 0.398913 0.109745 0.447119
498 2 0.489323 0.226778 0.481264
538 4 0.0946478 0.315909 0.459381
608 4 0.159732 0.314905 0.478652
1111 4 0.47165 0.311705 0.481047
1110 2 0.475335 0.306199 0.445599
181 4 0.342593 0.27754 0.498353
665 4 0.333998 0.84095 0.475671
1447 4 0.457481 0.0144496 0.452358
607 4 0.14864 0.385534 0.469151
606 2 0.154186 0.35022 0.473902
652 4 0.397805 0.400134 0.453771
954 2 0.343446 0.34903 0.486947
956 4 0.361792 0.379881 0.483474
1109 4 0.396937 0.367422 0.439673
651 2 0.388009 0.433147 0.464474
88 4 0.136241 0.524979 0.478752
324 2 0.138645 0.44527 0.463109
326 4 0.150878 0.478013 0.471975
857 4 0.223849 0.451191 0.490989
257 4 0.199103 0.439279 0.465712
255 2 0.208607 0.45571 0.43505
958 4 0.293849 0.403911 0.430777
87 2 0.10521 0.528186 0.46066
89 4 0.0741805 0.531392 0.442569
785 4 0.109743 0.645161 0.424632
783 2 0.102345 0.648873 0.459731
1189 4 0.303004 0.839521 0.486255
784 4 0.0949453 0.652586 0.494828
61 4 0.395491 0.640021 0.348013
799 4 0.367231 0.645548 0.373329
798 2 0.337884 0.659578 0.388897
1424 4 0.00231583 0.704679 0.491124
102 2 0.0119614 0.49543 0.122606
1206 2 0.482095 0.24942 0.214516
1063 4 0.484801 0.00434345 0.376208
1214 4 0.114808 0.936898 0.474604
808 4 0.495509 0.513707 0.234094
1091 4 0.00550645 0.285952 0.456897
901 4 0.0138075 0.421304 0.0245355
135 2 0.0480131 0.159275 0.490723
137 4 0.0444006 0.12658 0.475945
1098 2 0.493634 0.597658 0.0122547
364 4 0.491949 0.333436 0.136835
728 4 0.497411 0.107238 0.44979
1229 4 0.0803922 0.618813 0.492254
1212 2 0.0957587 0.915438 0.496444
664 4 0.387526 0.885643 0.494076
414 2 0.158009 0.578775 0.00557045
291 2 0.476092 0.133841 0.00709824
815 4 0.0562786 0.0103828 0.532333
1049 4 0.0389193 0.97657 0.532372
813 2 0.0810207 0.0287617 0.551053
814 4 0.105763 0.0471413 0.569774
979 4 0.116959 0.0837888 0.562103
1452 2 0.183057 0.0178009 0.558492
1453 4 0.180846 0.0477658 0.538552
1454 4 0.185269 0.987836 0.578433
1099 4 0.464717 0.587623 0.993189
1513 4 0.427379 0.0817386 0.535473
978 2 0.142972 0.0966009 0.583543
980 4 0.168984 0.109413 0.604981
1512 2 0.44877 0.104195 0.553874
1514 4 0.47016 0.126651 0.572275
1237 4 0.456767 0.147995 0.545312
1236 2 0.483679 0.171354 0.539789
1070 4 0.392959 0.164582 0.522237
1127 4 0.498946 0.0465093 0.860647
1123 4 0.00842961 0.113898 0.656345
136 4 0.0516262 0.191971 0.5055
182 4 0.295853 0.289813 0.551893
499 4 0.488971 0.201105 0.506586
1304 4 0.318686 0.954644 0.899007
430 4 0.106133 0.291326 0.55407
429 2 0.10243 0.326999 0.557839
180 2 0.319223 0.283676 0.525123
542 4 0.392081 0.45897 0.983589
540 2 0.370796 0.47845 0.961959
1519 4 0.371433 0.733257 0.525156
431 4 0.0987266 0.362671 0.561608
1339 4 0.491828 0.352125 0.600331
59 4 0.463974 0.00311325 0.952122
856 4 0.186216 0.446076 0.552302
855 2 0.205032 0.448634 0.521645
1466 4 0.487235 0.497196 0.981331
708 2 0.148705 0.527666 0.559058
709 4 0.131011 0.54065 0.530443
710 4 0.166397 0.514683 0.587672
1184 4 0.259552 0.584612 0.522085
286 4 0.22563 0.586881 0.508879
1182 2 0.2777 0.560488 0.54181
312 2 0.386262 0.875025 0.938885
1228 4 0.100787 0.563586 0.533917
1227 2 0.0905889 0.5912 0.513086
130 4 0.498866 0.941018 0.732101
285 2 0.204481 0.612878 0.522199
287 4 0.183334 0.638875 0.535518
1024 4 0.205577 0.655676 0.56146
381 2 0.292302 0.651307 0.576509
383 4 0.312909 0.655737 0.547249
1183 4 0.295848 0.536364 0.561535
382 4 0.271695 0.646879 0.605769
879 2 0.430308 0.61967 0.599252
881 4 0.417842 0.628683 0.566636
889 4 0.2795 0.939792 0.962863
696 2 0.0168148 0.744624 0.543269
1054 4 0.0293298 0.892086 0.908982
1023 2 0.228145 0.68265 0.553487
1025 4 0.250713 0.709623 0.545514
1027 4 0.24117 0.743068 0.563432
1026 2 0.243134 0.7784 0.556495
1520 4 0.433587 0.699496 0.539252
1518 2 0.402511 0.716377 0.532204
262 4 0.400486 0.802857 0.528402
317 4 0.342435 0.666523 0.980003
544 4 0.0301238 0.787179 0.570257
543 2 0.0404985 0.801179 0.601829
697 4 0.0215999 0.750657 0.578498
1028 4 0.245099 0.813734 0.549558
1148 4 0.300852 0.838133 0.573981
1190 4 0.283104 0.808395 0.548196
1188 2 0.293054 0.823958 0.517225
261 2 0.383254 0.800638 0.560002
263 4 0.366024 0.798417 0.591602
888 2 0.249062 0.95607 0.973302
1213 4 0.0767088 0.893977 0.518283
1464 2 0.498853 0.493743 0.947368
57 2 0.49493 0.986111 0.959405
528 2 0.138479 0.853082 0.589154
529 4 0.174157 0.851684 0.584102
630 2 0.43995 0.827808 0.971643
163 4 0.0138324 0.414337 0.973426
1118 4 0.0010457 0.427254 0.87308
1047 2 0.0258713 0.947425 0.549126
1048 4 0.0128237 0.918279 0.56588
530 4 0.1028 0.854481 0.594206
1175 4 0.204167 0.880032 0.516489
1101 2 0.406595 0.981489 0.600149
1103 4 0.423209 0.954545 0.582875
632 4 0.459401 0.797475 0.970222
659 4 0.430737 0.697445 0.963229
199 4 0.188395 0.27723 0.984111
407 4 0.0747552 0.159039 0.588367
1102 4 0.389981 0.00843399 0.617423
882 2 0.382641 0.0757022 0.593176
884 4 0.385118 0.040883 0.602225
405 2 0.0653713 0.157648 0.623158
406 4 0.0559862 0.156257 0.657949
911 4 0.193188 0.124257 0.582222
909 2 0.196438 0.159265 0.590239
1076 4 0.365101 0.135212 0.569308
1075 4 0.388503 0.201285 0.586289
1074 2 0.376803 0.168248 0.577798
883 4 0.380164 0.110521 0.584127
1477 4 0.495207 0.142632 0.645921
226 4 0.177181 0.189225 0.62712
910 4 0.199688 0.194274 0.598255
225 2 0.147448 0.180999 0.645793
227 4 0.117715 0.172773 0.664466
1155 2 0.000217724 0.34703 0.673014
360 2 0.157422 0.324311 0.733905
362 4 0.167289 0.307918 0.764472
1360 4 0.0353354 0.449078 0.645268
1359 2 0.0266174 0.414483 0.640016
1361 4 0.0178987 0.379888 0.634765
850 4 0.121745 0.36637 0.623166
849 2 0.117876 0.353938 0.656795
851 4 0.114006 0.341507 0.690424
1308 2 0.136393 0.403493 0.535618
1310 4 0.106368 0.384412 0.529717
1097 4 0.213129 0.370364 0.630852
1095 2 0.237547 0.356087 0.608483
1096 4 0.261964 0.341809 0.586115
151 4 0.397444 0.364975 0.598118
152 4 0.441501 0.341807 0.650308
150 2 0.419473 0.353391 0.624213
550 4 0.0343475 0.467073 0.682619
1309 4 0.166418 0.422573 0.541518
981 2 0.256027 0.582124 0.620646
1171 4 0.30958 0.576033 0.633859
1170 2 0.340139 0.564822 0.61834
1172 4 0.370699 0.553611 0.602821
1246 4 0.406628 0.54625 0.594813
1245 2 0.420163 0.513464 0.588308
1247 4 0.433697 0.480678 0.581804
1211 4 0.117177 0.641458 0.60954
1209 2 0.0992337 0.665353 0.629725
983 4 0.261271 0.614035 0.60469
880 4 0.442774 0.610657 0.631867
662 4 0.474514 0.611 0.646833
660 2 0.454554 0.62715 0.672153
926 4 0.0876155 0.726962 0.65422
1210 4 0.0812914 0.689249 0.649911
545 4 0.0508721 0.815178 0.633402
905 4 0.0783201 0.835643 0.644663
467 4 0.0139925 0.738441 0.610102
903 2 0.104651 0.819504 0.663281
107 4 0.237054 0.789434 0.629049
167 4 0.367605 0.813346 0.620555
165 2 0.338036 0.814713 0.641152
1301 4 0.0101158 0.332889 0.993042
1147 4 0.304517 0.907986 0.591554
1146 2 0.302685 0.873059 0.582768
166 4 0.308467 0.81608 0.661748
1055 4 0.0935568 0.897345 0.941366
219 2 0.0114536 0.10148 0.960873
1441 4 0.127942 0.0333127 0.683419
1440 2 0.112584 0.0612913 0.700202
1061 4 0.324761 0.014427 0.648348
1059 2 0.33326 0.983686 0.665174
1442 4 0.0972249 0.0892706 0.716987
169 4 0.128931 0.111259 0.72212
168 2 0.112528 0.142809 0.716123
170 4 0.0961255 0.174359 0.710127
474 2 0.272323 0.132738 0.697361
475 4 0.249688 0.117266 0.673936
476 4 0.294957 0.14821 0.720786
1476 2 0.480312 0.174896 0.652054
1478 4 0.465418 0.20716 0.658186
1157 4 0.0106178 0.315874 0.687898
634 4 0.0208138 0.268859 0.749725
1223 4 0.123678 0.610729 0.915133
633 2 0.00294228 0.278395 0.719892
361 4 0.147556 0.340704 0.703338
1501 4 0.423625 0.314723 0.784375
549 2 0.0115829 0.481091 0.706819
477 2 0.224457 0.424042 0.743505
479 4 0.193158 0.406188 0.74209
276 2 0.332649 0.463226 0.66691
277 4 0.315771 0.455573 0.635974
341 4 0.43396 0.536285 0.66532
339 2 0.447874 0.504977 0.676577
1068 2 0.385686 0.1366 0.500683
702 2 0.00180593 0.574766 0.6994
241 4 0.213833 0.557537 0.782831
982 4 0.250782 0.550213 0.636601
345 2 0.24645 0.548751 0.763738
347 4 0.268232 0.534894 0.788915
1001 4 0.37984 0.53833 0.744982
999 2 0.398464 0.566457 0.757726
340 4 0.461786 0.47367 0.687833
1000 4 0.417088 0.594585 0.77047
704 4 0.0269338 0.564633 0.675602
377 4 0.0385604 0.628096 0.733252
240 2 0.186561 0.576517 0.796847
375 2 0.0546237 0.656492 0.748617
376 4 0.0706871 0.684888 0.763982
924 2 0.0750694 0.727704 0.688021
925 4 0.0625238 0.728446 0.721821
1433 4 0.242973 0.737893 0.758109
1431 2 0.213111 0.742227 0.738364
661 4 0.434593 0.6433 0.697474
929 4 0.499478 0.729435 0.648524
344 4 0.491813 0.755194 0.737932
904 4 0.130983 0.803365 0.681898
105 2 0.234773 0.80257 0.662554
1463 4 0.210568 0.845295 0.71146
1461 2 0.180061 0.847277 0.730584
1385 4 0.476511 0.784219 0.647416
877 4 0.118592 0.8343 0.768623
106 4 0.232491 0.815706 0.696061
1267 4 0.442924 0.842187 0.773163
1266 2 0.439227 0.869015 0.74935
468 2 0.021414 0.969355 0.761255
1060 4 0.341759 0.952943 0.682
290 4 0.318818 0.937859 0.70549
288 2 0.336019 0.943417 0.736693
9 3 0.438809 0.930654 0.727606
7 3 0.442969 0.94555 0.675652
10 3 0.475699 0.967463 0.712339
6 1 0.445313 0.956196 0.706986
8 3 0.423038 0.980707 0.711779
1173 2 0.170887 0.891308 0.508385
192 2 0.121503 0.0028757 0.837747
193 4 0.148086 0.97859 0.839731
46 1 0.195346 0.997705 0.807009
49 3 0.1808 0.985523 0.834575
47 3 0.176983 0.989435 0.780645
48 3 0.197204 0.0310666 0.808864
1504 4 0.233307 0.0973335 0.841619
1503 2 0.250677 0.101211 0.810256
1505 4 0.268047 0.105088 0.778892
84 2 0.325782 0.161709 0.800703
86 4 0.355098 0.182681 0.801777
894 2 0.0099346 0.235099 0.782891
1053 2 0.061444 0.894715 0.925174
1333 4 0.107489 0.212259 0.84359
1495 4 0.0974149 0.203228 0.812029
1494 2 0.0888392 0.170282 0.82392
85 4 0.296466 0.140737 0.799629
1347 2 0.430808 0.217045 0.8202
1348 4 0.453045 0.214079 0.848434
895 4 0.033479 0.235774 0.755584
1332 2 0.116573 0.246357 0.851021
863 4 0.297759 0.319194 0.841929
861 2 0.268811 0.311794 0.821738
55 4 0.378285 0.222653 0.819842
54 2 0.364189 0.254104 0.830451
1502 4 0.466919 0.348417 0.737555
1349 4 0.40857 0.220011 0.791967
1500 2 0.445272 0.331569 0.760965
781 4 0.398468 0.450152 0.84272
478 4 0.255756 0.441897 0.74492
278 4 0.349527 0.470879 0.697845
780 2 0.372433 0.444564 0.818401
782 4 0.346398 0.438977 0.794082
346 4 0.224668 0.562609 0.73856
1178 4 0.185429 0.551098 0.893516
83 4 0.455257 0.603158 0.759845
481 4 0.077858 0.885664 0.974891
81 2 0.482643 0.580862 0.76715
1381 4 0.058014 0.642379 0.858584
1380 2 0.0520548 0.609927 0.844033
1382 4 0.0460959 0.577474 0.829482
242 4 0.15929 0.595496 0.810863
869 4 0.094991 0.764292 0.712739
203 4 0.212525 0.683996 0.827629
201 2 0.195786 0.706208 0.804676
260 4 0.253722 0.723034 0.823131
258 2 0.273427 0.696589 0.808544
259 4 0.293134 0.670145 0.793957
342 2 0.479118 0.759382 0.771424
343 4 0.466423 0.763571 0.804916
252 2 0.0761712 0.778129 0.817359
253 4 0.0945734 0.754107 0.797745
1462 4 0.149552 0.84926 0.749708
867 2 0.129627 0.767449 0.722269
868 4 0.164263 0.770603 0.731799
1432 4 0.183249 0.74656 0.718618
350 4 0.483183 0.785705 0.826308
348 2 0.496825 0.818961 0.8292
254 4 0.0577687 0.802152 0.836973
876 2 0.0987347 0.854635 0.746429
878 4 0.0788777 0.87497 0.724234
1268 4 0.435531 0.895843 0.725539
131 4 0.491037 0.89301 0.785352
469 4 0.0368097 0.937229 0.766849
50 3 0.225437 0.984972 0.803657
289 4 0.353222 0.948974 0.767897
1185 2 0.338742 0.996458 0.798611
1186 4 0.338519 0.980941 0.766059
129 2 0.494952 0.917014 0.758726
848 4 0.236956 0.413925 0.994493
194 4 0.0949203 0.027162 0.835762
45 3 0.258793 0.0996858 0.867466
44 3 0.311954 0.103569 0.877838
531 2 0.275164 0.0221568 0.84549
533 4 0.244112 0.0229191 0.863809
532 4 0.306217 0.0213941 0.82717
1187 4 0.338965 0.0119753 0.831162
1317 2 0.0428429 0.118651 0.890066
1496 4 0.0802626 0.137336 0.835811
1319 4 0.058379 0.124443 0.858043
755 4 0.180715 0.0827481 0.827719
753 2 0.146662 0.0940702 0.824159
42 3 0.279205 0.0766655 0.911633
754 4 0.11261 0.105392 0.820599
43 3 0.275689 0.13068 0.90873
41 1 0.281287 0.102725 0.891207
636 2 0.0811196 0.708162 0.966766
492 2 0.442433 0.18994 0.897568
494 4 0.468504 0.209295 0.881878
1233 2 0.0135464 0.276204 0.900962
487 4 0.0614207 0.293039 0.864394
486 2 0.0767528 0.325155 0.870221
1234 4 0.0371135 0.269943 0.874395
1334 4 0.125656 0.280455 0.858452
985 4 0.153504 0.300259 0.846234
644 4 0.0771299 0.343043 0.913132
984 2 0.176753 0.306958 0.872975
862 4 0.239863 0.304394 0.801547
230 4 0.380318 0.311662 0.849151
56 4 0.350094 0.285556 0.84106
228 2 0.368772 0.329276 0.878422
1116 2 0.0235886 0.447263 0.853286
488 4 0.0920851 0.35727 0.876048
470 4 0.00601785 0.00148204 0.755662
229 4 0.357226 0.34689 0.907694
1475 4 0.436318 0.322633 0.920106
1117 4 0.0461318 0.467273 0.833491
886 4 0.2524 0.486528 0.938632
885 2 0.252171 0.48599 0.902575
1177 4 0.135823 0.517508 0.853361
1176 2 0.160626 0.534303 0.873439
887 4 0.251941 0.485453 0.866518
640 4 0.457775 0.534702 0.840117
639 2 0.474468 0.511845 0.862461
1221 2 0.0900043 0.621216 0.907616
591 2 0.237674 0.600778 0.883434
593 4 0.248948 0.60763 0.849873
658 4 0.378305 0.745669 0.951964
638 4 0.101567 0.687325 0.945597
202 4 0.179046 0.72842 0.781723
1222 4 0.0563293 0.631703 0.900098
748 4 0.057593 0.83505 0.830494
1200 2 0.245707 0.826218 0.90982
1201 4 0.2357 0.811777 0.941312
1202 4 0.255713 0.840658 0.878328
415 4 0.133468 0.599134 0.988728
747 2 0.0426015 0.849475 0.859948
749 4 0.0276118 0.863901 0.889403
313 4 0.382329 0.904562 0.918575
139 4 0.488417 0.849177 0.866166
631 4 0.420498 0.85814 0.973065
1415 4 0.0245485 0.00321917 0.940927
1302 2 0.333728 0.983448 0.883372
1303 4 0.34877 0.0122523 0.867737
314 4 0.390196 0.845488 0.959195
890 4 0.218624 0.972347 0.983742
440 4 0.235455 0.00312969 0.971686
438 2 0.229728 0.0357331 0.985991
1318 4 0.0273064 0.112858 0.922088
221 4 0.0285051 0.131315 0.949937
493 4 0.416362 0.170588 0.913257
293 4 0.451291 0.1497 0.98627
637 4 0.0606722 0.728999 0.987934
200 4 0.124644 0.260374 0.9549
1367 4 0.348219 0.177525 0.951102
1366 4 0.317883 0.112908 0.961395
1365 2 0.333051 0.145216 0.956248
592 4 0.226401 0.593926 0.916996
541 4 0.349509 0.49793 0.940329
641 4 0.491161 0.488987 0.884804
643 4 0.0414075 0.325288 0.973221
642 2 0.0592685 0.334165 0.943177
198 2 0.156519 0.268802 0.969506
986 4 0.200001 0.313657 0.899716
657 2 0.404521 0.721557 0.957597
923 4 0.472176 0.528453 0.985905
1473 2 0.470275 0.330037 0.910489
162 2 0.00422079 0.415464 0.938687
698 4 0.0120295 0.738591 0.50804
178 4 0.536337 0.195515 0.0569183
177 2 0.535794 0.160533 0.0481803
648 2 0.638088 0.215046 0.00807573
650 4 0.631902 0.2408 0.0325483
1261 4 0.649154 0.261876 0.0607393
40 3 0.726436 0.228896 0.0445295
1203 2 0.76575 0.193887 0.0927478
1204 4 0.788489 0.213838 0.0731204
37 3 0.779801 0.235743 0.0429374
36 1 0.750486 0.249278 0.0353126
790 4 0.591845 0.278937 0.0465311
789 2 0.570945 0.264935 0.0206941
1260 2 0.651808 0.288723 0.0368107
1262 4 0.654461 0.31557 0.0128815
38 3 0.747525 0.278459 0.0514243
1199 4 0.983251 0.323163 0.0866602
1423 4 0.980443 0.637107 0.478571
1422 2 0.99138 0.670894 0.484847
711 2 0.89581 0.419558 0.077461
712 4 0.906162 0.411167 0.110969
1355 4 0.566172 0.467189 0.0548656
1387 4 0.541417 0.477523 0.0865556
1090 4 0.980513 0.226214 0.425144
244 4 0.640823 0.430667 0.0431265
243 2 0.625097 0.426018 0.0110099
713 4 0.885458 0.42795 0.0439521
902 4 0.949249 0.424821 0.0564964
900 2 0.981528 0.423063 0.0405157
1353 2 0.580496 0.500271 0.0556688
74 4 0.569831 0.557968 0.0639087
1354 4 0.594822 0.533357 0.0564703
104 4 0.984353 0.482509 0.141874
724 4 0.529872 0.955771 0.48752
1100 4 0.522551 0.607693 0.0313206
1064 4 0.530658 0.0487199 0.409816
1335 2 0.956949 0.593672 0.0459577
1057 4 0.860249 0.721368 0.043199
1056 2 0.845777 0.699667 0.0182979
587 4 0.624847 0.72163 0.0281118
672 2 0.925613 0.808918 0.0641621
673 4 0.912589 0.804854 0.0307819
1022 4 0.92497 0.778766 0.00883262
1352 4 0.510991 0.399015 0.400302
1448 4 0.504574 0.981044 0.495579
725 4 0.587657 0.998782 0.491071
266 4 0.503371 0.338521 0.16881
1436 4 0.709991 0.963437 0.0274681
1434 2 0.723828 0.976735 0.0579989
281 4 0.946955 0.95602 0.0458564
1372 4 0.609206 0.0877923 0.136963
1371 2 0.617496 0.0715692 0.105843
621 2 0.745709 0.0646341 0.143629
623 4 0.743835 0.0340535 0.12461
90 2 0.566844 0.151897 0.13075
92 4 0.54936 0.176664 0.111222
1373 4 0.625786 0.0553458 0.0747227
793 4 0.759759 0.126839 0.182201
622 4 0.747583 0.095215 0.162648
792 2 0.745665 0.1547 0.164159
1011 2 0.644386 0.212544 0.158818
196 4 0.666752 0.255721 0.117723
1013 4 0.650236 0.223343 0.124912
1205 4 0.743009 0.173936 0.112374
794 4 0.731571 0.182562 0.146116
363 2 0.501503 0.336208 0.102174
197 4 0.705075 0.307863 0.14957
195 2 0.685913 0.281791 0.133646
402 2 0.850629 0.31889 0.154652
403 4 0.860023 0.336291 0.124496
585 2 0.61084 0.753949 0.0203843
365 4 0.511056 0.338979 0.0675114
1386 2 0.522083 0.447722 0.0927662
238 4 0.518359 0.509691 0.100097
1081 4 0.531272 0.492196 0.144851
1388 4 0.502749 0.417922 0.0989763
1437 2 0.794998 0.497885 0.164759
72 2 0.563551 0.571112 0.0968962
73 4 0.557271 0.584258 0.129884
1438 4 0.813633 0.523035 0.182666
304 4 0.812419 0.596613 0.107294
305 4 0.87427 0.561079 0.117937
303 2 0.843345 0.578846 0.112615
267 2 0.539452 0.626563 0.148769
268 4 0.538572 0.612068 0.115761
269 4 0.540333 0.641057 0.181776
760 4 0.77783 0.598147 0.111729
759 2 0.77212 0.600578 0.147252
700 4 0.890512 0.683158 0.172207
772 4 0.585336 0.74917 0.0968429
699 2 0.861694 0.661839 0.168284
1165 4 0.925817 0.691686 0.162048
1164 2 0.917984 0.712246 0.133476
771 2 0.616019 0.76682 0.10373
773 4 0.646702 0.78447 0.110618
1166 4 0.910151 0.732806 0.104904
1254 2 0.969795 0.841078 0.131262
1255 4 0.975572 0.822133 0.101127
674 4 0.938637 0.812983 0.0975429
112 4 0.669328 0.847444 0.12398
113 4 0.683467 0.912655 0.151351
111 2 0.676398 0.88005 0.137665
79 4 0.689788 0.944865 0.158792
1256 4 0.964018 0.860023 0.161396
1009 4 0.609891 0.95442 0.131628
1008 2 0.580094 0.967223 0.147398
331 4 0.636665 0.996147 0.158752
1435 4 0.737665 0.990033 0.0885299
78 2 0.708584 0.952542 0.12899
80 4 0.727381 0.960219 0.0991882
279 2 0.929736 0.979347 0.0672998
280 4 0.912519 0.00267392 0.0887436
731 4 0.595479 0.0342977 0.239856
330 2 0.637526 0.00219551 0.194292
332 4 0.638389 0.00824444 0.229831
323 4 0.976182 0.128913 0.19903
91 4 0.584327 0.12713 0.150278
1225 4 0.580306 0.0323028 0.203591
1224 2 0.583619 0.0634773 0.185769
1226 4 0.586931 0.0946519 0.167948
1379 4 0.83928 0.139859 0.226625
322 4 0.926816 0.166647 0.235647
321 2 0.951499 0.14778 0.217339
1029 2 0.644696 0.185891 0.260386
1030 4 0.63115 0.205487 0.233313
1012 4 0.638536 0.201745 0.192723
235 4 0.805346 0.243401 0.217864
1378 4 0.824035 0.209223 0.214061