ITEM: TIMESTEP
979500
ITEM: NUMBER OF ATOMS
1520
ITEM: BOX BOUNDS pp pp pp
-6.9326749999999997e+00 6.9326749999999997e+00
-6.9326749999999997e+00 6.9326749999999997e+00
-6.9326749999999997e+00 6.9326749999999997e+00
ITEM: ATOMS id type xs ys zs
1137 2 0.0428083 0.0586549 0.0264238
1139 4 0.0265046 0.0734929 0.0549625
166 4 0.0266012 0.358927 0.0462307
1213 4 0.283376 0.992154 0.0422987
1362 2 0.451447 0.0752732 0.0322889
1363 4 0.441119 0.10594 0.0482053
953 4 0.0707723 0.145507 0.0112444
1424 4 0.278628 0.0802958 0.0429001
1422 2 0.296117 0.103422 0.0214587
1347 2 0.459685 0.507648 0.0245766
951 2 0.0569684 0.178494 0.00658464
755 4 0.24711 0.249349 0.0404344
621 2 0.413901 0.234119 0.0703195
622 4 0.435165 0.21554 0.047891
165 2 0.0153984 0.332883 0.0239444
325 4 0.052784 0.289501 0.0687353
167 4 0.00419634 0.306839 0.00165833
324 2 0.0864888 0.277144 0.0653156
326 4 0.120194 0.264787 0.0618958
753 2 0.254238 0.223906 0.0649747
234 2 0.241163 0.7966 0.461917
236 4 0.229131 0.797471 0.427933
771 2 0.490691 0.312728 0.102544
773 4 0.457785 0.317992 0.0887652
106 4 0.0593426 0.336875 0.0674735
935 4 0.0689634 0.370643 0.0475553
430 4 0.0353944 0.391532 0.0930562
429 2 0.022809 0.413598 0.0674611
933 2 0.103544 0.374399 0.0380402
934 4 0.138124 0.378156 0.0285261
1350 2 0.359331 0.383182 0.0345201
1352 4 0.344037 0.399984 0.0625237
1351 4 0.374624 0.36638 0.00651636
431 4 0.0102233 0.435664 0.0418656
1305 2 0.160741 0.449748 0.0260435
1307 4 0.152983 0.415422 0.0339179
1306 4 0.168498 0.484073 0.0181685
228 2 0.221989 0.5045 0.0499697
229 4 0.247262 0.526374 0.0635052
230 4 0.196715 0.482627 0.0364346
75 2 0.138071 0.54166 0.0611326
76 4 0.154111 0.543568 0.028891
1349 4 0.465322 0.518489 0.0585046
114 2 0.0465619 0.635869 0.0115335
115 4 0.0170913 0.643269 0.0309529
826 4 0.130014 0.634124 0.0640657
825 2 0.121689 0.639214 0.0293499
828 2 0.0874319 0.701317 0.00153224
829 4 0.0930058 0.733795 0.0161785
1290 2 0.145295 0.72905 0.0416681
1291 4 0.131787 0.697976 0.054013
605 4 0.0855188 0.771448 0.017849
1292 4 0.158803 0.760122 0.0293231
603 2 0.104473 0.79512 0.0373637
604 4 0.123428 0.818791 0.0568788
154 4 0.125556 0.850065 0.0935777
1159 4 0.230931 0.756288 0.0565439
274 4 0.211009 0.818259 0.997975
273 2 0.189791 0.817833 0.0271304
1158 2 0.232576 0.76813 0.0905653
1043 4 0.350585 0.790597 0.0497844
1041 2 0.381682 0.807102 0.057589
1042 4 0.41278 0.823609 0.0653932
573 2 0.451059 0.96907 0.423296
782 4 0.171873 0.877991 0.07429
780 2 0.144615 0.897644 0.0612049
275 4 0.168573 0.817406 0.0562856
205 4 0.355735 0.892744 0.0276469
204 2 0.383662 0.870871 0.0211653
206 4 0.411589 0.848997 0.0146843
1318 4 0.483617 0.880905 0.0267793
731 4 0.0361404 0.928901 0.015674
781 4 0.117358 0.917296 0.0481199
1417 4 0.12763 0.759738 0.401189
67 4 0.125894 0.943423 0.0253589
88 4 0.315041 0.985065 0.0230744
87 2 0.335045 0.955514 0.0178827
89 4 0.35505 0.925963 0.012691
854 4 0.0581929 0.0411352 0.106707
852 2 0.0721724 0.0743145 0.104674
1152 2 0.157761 0.0777374 0.135509
1153 4 0.177082 0.0474144 0.132756
395 4 0.498468 0.0498853 0.120789
393 2 0.471516 0.0290745 0.13266
853 4 0.0861518 0.107493 0.10264
1294 4 0.0486784 0.162327 0.150688
323 4 0.0677043 0.133892 0.0907647
1203 2 0.159399 0.150298 0.107328
1154 4 0.138439 0.108061 0.138262
1205 4 0.125894 0.138266 0.113076
899 4 0.228821 0.157525 0.0847504
898 4 0.291288 0.159511 0.120745
897 2 0.260055 0.158518 0.102748
322 4 0.0932121 0.194391 0.120611
598 4 0.0156632 0.164497 0.149749
321 2 0.0804583 0.164142 0.105688
1204 4 0.192905 0.162329 0.101581
109 4 0.315016 0.177684 0.145392
108 2 0.30353 0.20473 0.166295
623 4 0.392636 0.252699 0.0927477
734 4 0.416812 0.249994 0.118932
732 2 0.421461 0.239406 0.153089
107 4 0.038563 0.337868 0.136531
754 4 0.261367 0.198462 0.0895152
1269 2 0.292715 0.329829 0.16465
143 4 0.382564 0.338473 0.127343
575 4 0.471654 0.998672 0.423326
105 2 0.0489527 0.337371 0.102003
1270 4 0.298682 0.349107 0.134763
1100 4 0.308689 0.40093 0.120505
142 4 0.321778 0.367928 0.102063
141 2 0.352171 0.3532 0.114702
320 4 0.0536854 0.468371 0.103192
1099 4 0.35964 0.451747 0.115669
1098 2 0.334164 0.426339 0.118087
198 2 0.384718 0.484932 0.0921421
200 4 0.363135 0.461835 0.0747905
318 2 0.0721127 0.499092 0.099061
319 4 0.090539 0.529813 0.0949296
77 4 0.122032 0.539752 0.0933731
695 4 0.131908 0.560218 0.118662
693 2 0.136906 0.533468 0.142323
648 2 0.239111 0.545252 0.120565
650 4 0.256777 0.565681 0.14446
649 4 0.221445 0.524825 0.0966682
199 4 0.406302 0.508028 0.109494
500 4 0.465149 0.563048 0.100335
670 4 0.332124 0.607538 0.130897
669 2 0.333086 0.636613 0.152206
442 4 0.0174736 0.745111 0.175207
409 4 0.15313 0.745784 0.12375
408 2 0.179013 0.751353 0.148234
1303 4 0.480635 0.716877 0.122402
1302 2 0.490846 0.718938 0.0878781
153 2 0.132607 0.837627 0.126683
155 4 0.139658 0.825188 0.159789
1160 4 0.23422 0.779971 0.124587
1505 4 0.237427 0.765339 0.15728
1503 2 0.255273 0.796636 0.158862
1504 4 0.273117 0.827932 0.160444
1512 2 0.0319267 0.839253 0.155309
1514 4 0.0184766 0.871701 0.147146
1240 4 0.33296 0.88216 0.173737
112 4 0.460552 0.954688 0.0809842
394 4 0.444565 0.00826348 0.144532
111 2 0.489201 0.941503 0.0984719
1489 4 0.241308 0.08679 0.214156
962 4 0.340515 0.0264295 0.230983
1141 4 0.337112 0.0587562 0.213547
296 4 0.0471418 0.128972 0.169911
294 2 0.0451211 0.106082 0.197705
295 4 0.0431011 0.0831953 0.225498
1490 4 0.172856 0.108425 0.207238
1488 2 0.207083 0.0976078 0.210697
1142 4 0.270099 0.0748924 0.192322
1140 2 0.303605 0.0668244 0.202935
1295 4 0.0841582 0.184141 0.209568
1293 2 0.066418 0.173235 0.180127
691 4 0.0520709 0.24201 0.196851
690 2 0.0664612 0.259513 0.224904
1031 4 0.100249 0.172152 0.242245
583 4 0.125696 0.209903 0.21833
582 2 0.149655 0.220523 0.243101
110 4 0.292043 0.231777 0.187199
985 4 0.268462 0.209789 0.209031
984 2 0.257501 0.242942 0.218041
974 4 0.434013 0.194183 0.181741
972 2 0.444181 0.176502 0.211479
733 4 0.42611 0.228819 0.187246
973 4 0.454349 0.158821 0.241218
259 4 0.432227 0.168398 0.268911
692 4 0.0808512 0.277016 0.252957
1271 4 0.286747 0.310551 0.194536
907 4 0.318469 0.322306 0.204779
986 4 0.24654 0.276094 0.22705
1148 4 0.406007 0.270322 0.22733
1146 2 0.43719 0.267451 0.245212
906 2 0.3432 0.337198 0.226389
683 4 0.383644 0.375591 0.225673
1338 2 0.0741661 0.446513 0.214069
1340 4 0.0455735 0.435542 0.19503
1336 4 0.0172412 0.454472 0.199113
1339 4 0.10276 0.457485 0.233108
1072 4 0.470149 0.575981 0.21965
1071 2 0.460493 0.54748 0.239522
694 4 0.141905 0.506717 0.165985
1468 4 0.165125 0.623245 0.196518
1467 2 0.156758 0.658147 0.193022
1051 4 0.234698 0.6311 0.263119
1050 2 0.210179 0.60838 0.249589
671 4 0.334048 0.665689 0.173515
937 4 0.459829 0.607889 0.207855
936 2 0.488958 0.623859 0.221887
443 4 0.0310029 0.687446 0.216358
441 2 0.0242385 0.716279 0.195782
1469 4 0.148391 0.69305 0.189525
413 4 0.311738 0.690892 0.187122
411 2 0.310922 0.701325 0.221631
412 4 0.310106 0.711759 0.25614
1513 4 0.045377 0.806805 0.163472
410 4 0.204896 0.756922 0.172717
130 4 0.208708 0.769167 0.203422
129 2 0.197243 0.781567 0.235283
1241 4 0.272032 0.847251 0.190189
349 4 0.444655 0.805818 0.254447
348 2 0.469327 0.779517 0.254383
1346 4 0.119363 0.860456 0.263805
1239 2 0.302496 0.864705 0.181963
606 2 0.0848231 0.0584284 0.278157
226 4 0.108744 0.0194272 0.256656
608 4 0.108247 0.033503 0.289578
960 2 0.350615 0.0195729 0.264915
961 4 0.360715 0.0127166 0.298847
607 4 0.0613986 0.0833536 0.266735
1029 2 0.11466 0.146542 0.263148
1030 4 0.129071 0.120932 0.28405
55 4 0.327642 0.164433 0.339464
584 4 0.173614 0.231142 0.267872
54 2 0.345783 0.19539 0.335862
260 4 0.386288 0.195058 0.317703
258 2 0.409258 0.181727 0.293307
1027 4 0.378285 0.253153 0.319453
56 4 0.363924 0.226346 0.332261
1026 2 0.357396 0.281926 0.325465
1028 4 0.336507 0.3107 0.331476
491 4 0.480704 0.295115 0.250796
1147 4 0.468373 0.264579 0.263095
1234 4 0.07288 0.328066 0.337202
908 4 0.367932 0.352091 0.247999
681 2 0.403853 0.393891 0.249277
682 4 0.42406 0.412192 0.272881
1367 4 0.411973 0.446546 0.281354
1365 2 0.429791 0.477248 0.287701
1366 4 0.447609 0.507951 0.294047
550 4 0.0785345 0.580509 0.269264
1052 4 0.18566 0.585661 0.23606
1398 2 0.290069 0.568162 0.307696
1399 4 0.320557 0.556736 0.323199
343 4 0.352434 0.565937 0.313608
1073 4 0.450837 0.518979 0.259393
549 2 0.0803347 0.612206 0.286366
551 4 0.0821347 0.643902 0.303468
1253 4 0.235107 0.57867 0.322907
1400 4 0.25958 0.579587 0.292194
455 4 0.109848 0.727131 0.268282
453 2 0.130357 0.711213 0.29331
872 4 0.272194 0.690899 0.340456
870 2 0.291286 0.720289 0.331966
350 4 0.493998 0.753216 0.254318
131 4 0.185778 0.793968 0.267146
1345 4 0.175187 0.819498 0.243614
871 4 0.310379 0.749679 0.323475
380 4 0.395644 0.765137 0.341391
378 2 0.430485 0.759705 0.333836
1344 2 0.147275 0.839977 0.253709
545 4 0.42773 0.908016 0.343653
225 2 0.123343 0.9866 0.253555
227 4 0.137943 0.953772 0.250454
779 4 0.412476 0.936351 0.334925
1167 2 0.47316 0.980912 0.288871
1168 4 0.44991 0.00826882 0.285478
218 4 0.190236 0.0134971 0.395905
813 2 0.0066192 0.139949 0.384304
709 4 0.016259 0.20437 0.406505
1233 2 0.04205 0.312111 0.346968
1235 4 0.0112201 0.296157 0.356735
461 4 0.445862 0.400569 0.377021
119 4 0.393736 0.855654 0.501513
459 2 0.479785 0.393268 0.367206
626 4 0.292508 0.481064 0.346169
624 2 0.301692 0.48859 0.380219
625 4 0.310875 0.496117 0.414269
344 4 0.400213 0.57134 0.367363
342 2 0.376323 0.568639 0.340486
568 4 0.0905586 0.622247 0.382953
567 2 0.126097 0.618452 0.38775
569 4 0.161636 0.614657 0.392547
1251 2 0.202244 0.585466 0.336107
1252 4 0.169381 0.592263 0.349307
41 1 0.20283 0.650506 0.434289
42 3 0.172329 0.643086 0.423547
774 2 0.076084 0.689218 0.397161
775 4 0.0641901 0.721594 0.407683
776 4 0.0879786 0.656842 0.386639
454 4 0.150866 0.695295 0.318338
43 3 0.216059 0.673702 0.414118
396 2 0.263619 0.70334 0.407748
398 4 0.265409 0.690875 0.373958
472 4 0.477602 0.761651 0.361971
1418 4 0.0707312 0.804058 0.4014
1473 2 0.0188787 0.825103 0.416283
875 4 0.165844 0.764064 0.395327
1416 2 0.0991806 0.781898 0.401295
873 2 0.184591 0.792143 0.407998
874 4 0.203337 0.820222 0.420669
1511 4 0.31301 0.782582 0.340499
1510 4 0.359007 0.83167 0.366504
1509 2 0.336009 0.807126 0.353501
379 4 0.465325 0.754274 0.326281
1114 4 0.354199 0.880578 0.494462
1420 4 0.324911 0.914505 0.365467
1419 2 0.291897 0.928287 0.37
544 4 0.386193 0.850381 0.356085
543 2 0.406961 0.879199 0.349869
216 2 0.212511 0.985462 0.400175
217 4 0.234787 0.957427 0.404445
1421 4 0.258883 0.94207 0.374533
777 2 0.387651 0.960468 0.345048
778 4 0.362826 0.984585 0.355171
574 4 0.430463 0.939469 0.423267
358 4 0.259748 0.0811876 0.464261
1143 2 0.494169 0.0333555 0.450441
1144 4 0.469563 0.0350194 0.424131
1387 4 0.00791898 0.14348 0.439422
1212 2 0.26152 0.984747 0.0145883
815 4 0.0220782 0.122593 0.411876
357 2 0.270767 0.103224 0.490593
687 2 0.292626 0.263953 0.478335
689 4 0.30014 0.287542 0.452114
640 4 0.332525 0.303126 0.436001
639 2 0.353957 0.331689 0.441025
641 4 0.375389 0.360252 0.446048
764 4 0.150282 0.501433 0.454103
762 2 0.129939 0.48813 0.480741
1195 4 0.310857 0.480801 0.447133
1084 4 0.242992 0.549996 0.485542
1194 2 0.290942 0.5096 0.45576
1196 4 0.271027 0.538398 0.464389
44 3 0.200716 0.662376 0.465506
45 3 0.221352 0.623385 0.433841
1085 4 0.269304 0.615836 0.498747
1083 2 0.256148 0.582916 0.492144
1481 4 0.133689 0.706978 0.464938
397 4 0.261829 0.715805 0.441539
1474 4 0.0396739 0.797322 0.426092
211 4 0.278349 0.208667 0.48882
1479 2 0.108014 0.700475 0.489409
520 4 0.0471389 0.854047 0.470404
725 4 0.484077 0.140948 0.136304
723 2 0.500279 0.146431 0.104558
1342 4 0.497189 0.91272 0.138158
1341 2 0.498407 0.888108 0.164485
748 4 0.438944 0.378845 0.496569
235 4 0.253196 0.795729 0.4959
328 4 0.170421 0.851676 0.473786
1364 4 0.461775 0.0446074 0.0163723
1103 4 0.349434 0.656974 0.00685149
783 2 0.387628 0.0975543 0.528703
785 4 0.419408 0.11038 0.517482
151 4 0.445301 0.0499348 0.586819
1279 4 0.331427 0.104451 0.558349
1278 2 0.304547 0.121869 0.574915
359 4 0.281785 0.12526 0.516926
212 4 0.256546 0.15088 0.52606
784 4 0.355847 0.0847292 0.539924
959 4 0.0959429 0.224604 0.543035
1067 4 0.0212274 0.48154 0.884117
210 2 0.267448 0.179773 0.50744
99 2 0.418942 0.203829 0.550144
100 4 0.43358 0.200856 0.517322
563 4 0.468268 0.218154 0.522444
561 2 0.485357 0.249863 0.520747
957 2 0.0935638 0.257161 0.558359
1046 4 0.173931 0.301665 0.569783
1045 4 0.237658 0.303623 0.536068
1044 2 0.205794 0.302644 0.552925
823 4 0.262809 0.301147 0.563449
688 4 0.285112 0.240365 0.504557
749 4 0.422914 0.347288 0.559409
822 2 0.270562 0.334224 0.575544
451 4 0.275514 0.389194 0.557663
747 2 0.430929 0.363066 0.527989
1065 2 0.011509 0.489386 0.917946
512 4 0.0217416 0.43202 0.53577
510 2 0.0533213 0.439576 0.520086
1502 4 0.0282614 0.431017 0.572377
10 3 0.997513 0.471424 0.520304
511 4 0.0849014 0.447133 0.504401
763 4 0.109595 0.474827 0.507379
450 2 0.264313 0.420399 0.571848
123 2 0.0513107 0.548301 0.565825
124 4 0.0681653 0.57771 0.57813
125 4 0.0344559 0.518892 0.55352
4 3 0.440681 0.5816 0.576759
571 4 0.148811 0.617828 0.582905
570 2 0.154687 0.653079 0.578083
1 1 0.412421 0.597271 0.568059
2 3 0.409123 0.595915 0.535075
5 3 0.413664 0.628699 0.577524
930 2 0.068886 0.72207 0.570633
66 2 0.128817 0.961129 0.99408
1480 4 0.0823379 0.693971 0.513882
931 4 0.0916642 0.702493 0.550675
572 4 0.160563 0.68833 0.573261
714 2 0.201431 0.724244 0.570941
286 4 0.0496761 0.770647 0.568187
285 2 0.0194302 0.786646 0.556801
1134 2 0.16093 0.807721 0.572975
1135 4 0.127584 0.819453 0.565849
1136 4 0.194277 0.795989 0.580101
716 4 0.206586 0.759745 0.57462
686 4 0.49955 0.518845 0.902615
117 2 0.401721 0.831512 0.527083
118 4 0.409704 0.807369 0.552653
1057 4 0.388706 0.828976 0.572328
521 4 0.0375681 0.897551 0.527126
519 2 0.0423539 0.875799 0.498765
1460 4 0.232485 0.961232 0.86679
329 4 0.141544 0.878681 0.534106
327 2 0.155982 0.865178 0.503946
864 2 0.498479 0.955581 0.80748
1334 4 0.175701 0.904788 0.530403
1332 2 0.209543 0.908218 0.542377
1214 4 0.239665 0.977341 0.986878
971 4 0.999718 0.88985 0.522922
1333 4 0.243385 0.911647 0.554351
1115 4 0.326123 0.942369 0.518856
1113 2 0.340161 0.911474 0.506659
333 2 0.106805 0.0785578 0.666891
334 4 0.110645 0.0431701 0.661112
1220 4 0.400412 0.066461 0.649453
150 2 0.419294 0.0414925 0.610329
152 4 0.393286 0.0330507 0.63384
335 4 0.102966 0.113945 0.672669
883 4 0.189868 0.11456 0.6218
900 2 0.268205 0.156415 0.655245
902 4 0.255077 0.143621 0.62419
1280 4 0.277665 0.139288 0.591481
1218 2 0.384516 0.0959373 0.662828
1325 4 0.026347 0.203771 0.619554
1462 4 0.300273 0.230377 0.603823
889 4 0.322877 0.234913 0.632678
888 2 0.345437 0.221284 0.608066
890 4 0.367996 0.207655 0.583454
101 4 0.404303 0.206802 0.582966
958 4 0.0911851 0.289717 0.573683
181 4 0.0192415 0.339223 0.649663
1463 4 0.233382 0.25723 0.606303
1461 2 0.266827 0.243803 0.605063
339 2 0.292465 0.304927 0.662837
341 4 0.282519 0.270433 0.659426
824 4 0.278313 0.3673 0.587638
340 4 0.30241 0.339421 0.666249
1500 2 0.0156995 0.408358 0.597462
1501 4 0.00313744 0.3857 0.622546
452 4 0.253112 0.451604 0.586032
3 3 0.386141 0.582121 0.582191
241 4 0.0668307 0.640714 0.648641
242 4 0.125686 0.622618 0.611087
240 2 0.096258 0.631666 0.629864
878 4 0.150808 0.618349 0.644568
876 2 0.18107 0.606379 0.660102
1238 4 0.355954 0.617325 0.660027
1236 2 0.385956 0.637084 0.656888
1237 4 0.415958 0.656844 0.65375
1079 4 0.457138 0.67215 0.621811
481 4 0.478507 0.64062 0.615808
932 4 0.0461079 0.741647 0.59059
715 4 0.196275 0.688744 0.567262
467 4 0.144782 0.708851 0.661568
1394 4 0.139896 0.744938 0.675279
465 2 0.175351 0.690104 0.665375
466 4 0.20592 0.671358 0.669181
1077 2 0.483261 0.690345 0.604871
1391 4 0.478007 0.78072 0.622595
1389 2 0.4785 0.797888 0.654303
1397 4 0.0968388 0.87999 0.655834
664 4 0.094883 0.917391 0.64635
1056 2 0.38364 0.846659 0.603345
1058 4 0.378574 0.864342 0.634362
377 4 0.404953 0.885903 0.609457
375 2 0.429972 0.908505 0.596667
967 4 0.111915 0.97626 0.665968
663 2 0.124156 0.936132 0.636741
665 4 0.153429 0.95487 0.627132
145 4 0.17377 0.971057 0.651995
376 4 0.454991 0.931107 0.583876
964 4 0.478302 0.948113 0.601624
968 4 0.0628955 0.011595 0.705339
146 4 0.225806 0.0104026 0.682749
652 4 0.25377 0.0180318 0.750359
884 4 0.177753 0.0880487 0.68777
901 4 0.281332 0.169209 0.686299
882 2 0.18381 0.101304 0.654785
1219 4 0.36862 0.125413 0.676204
65 4 0.314583 0.235094 0.709769
1492 4 0.100903 0.24256 0.768928
1493 4 0.142527 0.217028 0.715851
1491 2 0.121715 0.229794 0.74239
169 4 0.232656 0.188178 0.708922
170 4 0.213367 0.254933 0.689599
168 2 0.223011 0.221555 0.699261
64 4 0.280872 0.172373 0.721226
63 2 0.297727 0.203733 0.715498
839 4 0.350117 0.239015 0.696882
837 2 0.376389 0.260168 0.709639
760 4 0.0408787 0.297862 0.720984
182 4 0.0648787 0.305211 0.693957
180 2 0.0420604 0.322217 0.67181
832 4 0.0940515 0.326509 0.697888
833 4 0.165971 0.32117 0.69703
831 2 0.130011 0.323839 0.697459
838 4 0.402661 0.281321 0.722397
284 4 0.446539 0.323817 0.736202
282 2 0.459892 0.326171 0.702787
704 4 0.0224611 0.40859 0.727965
702 2 0.00553403 0.378276 0.718223
799 4 0.22898 0.332174 0.711211
798 2 0.206356 0.345549 0.735902
283 4 0.473244 0.328526 0.669371
297 2 0.0771703 0.524016 0.757387
298 4 0.052413 0.5091 0.735823
299 4 0.101927 0.538932 0.778951
1435 4 0.0244225 0.604863 0.741403
880 4 0.106432 0.62188 0.712691
879 2 0.0960973 0.656222 0.71647
178 4 0.117462 0.601731 0.740525
877 4 0.211332 0.594408 0.675637
356 4 0.31879 0.6363 0.661001
354 2 0.296519 0.634676 0.689317
355 4 0.274247 0.633051 0.717632
881 4 0.0857626 0.690563 0.72025
613 4 0.28431 0.66563 0.731345
534 2 0.419899 0.68493 0.709847
535 4 0.404011 0.685569 0.677481
536 4 0.435788 0.68429 0.742213
1393 4 0.096615 0.802113 0.682988
1396 4 0.152661 0.869384 0.700253
1392 2 0.118256 0.773526 0.679134
1444 4 0.206623 0.792058 0.745415
1390 4 0.478993 0.815056 0.686012
1395 2 0.12475 0.874687 0.678044
1443 2 0.183425 0.818977 0.739281
1445 4 0.160227 0.845896 0.733146
966 2 0.0874054 0.993928 0.685653
144 2 0.199788 0.990729 0.667372
1382 4 0.155243 0.0220938 0.772671
1380 2 0.153127 0.0412241 0.803166
1381 4 0.151011 0.0603544 0.833662
651 2 0.263335 0.990642 0.771776
1247 4 0.00387142 0.159395 0.790161
1069 4 0.160408 0.0860141 0.775988
137 4 0.249304 0.13266 0.75764
1068 2 0.186536 0.110121 0.769942
1070 4 0.212665 0.134228 0.763896
136 4 0.281169 0.148306 0.820421
135 2 0.265236 0.140483 0.78903
1300 4 0.459653 0.167269 0.828308
1299 2 0.481891 0.160371 0.800771
1245 2 0.0269918 0.184204 0.777899
1246 4 0.0501119 0.209013 0.765637
759 2 0.039003 0.311706 0.754229
761 4 0.0371267 0.325551 0.787473
905 4 0.0664932 0.322871 0.801259
35 3 0.212684 0.283261 0.833629
1266 2 0.275235 0.312736 0.770236
1267 4 0.301574 0.289877 0.779412
587 4 0.336145 0.283604 0.796774
585 2 0.368624 0.294792 0.785804
586 4 0.401104 0.305979 0.774835
602 4 0.442067 0.246703 0.79611
600 2 0.445796 0.282557 0.795112
601 4 0.449524 0.318411 0.794113
247 4 0.189004 0.376318 0.797726
246 2 0.186043 0.349774 0.821955
800 4 0.183732 0.358925 0.760594
1268 4 0.248897 0.335594 0.761061
179 4 0.151922 0.566508 0.793188
1117 4 0.181953 0.58968 0.791365
1116 2 0.18943 0.574575 0.823245
1434 2 0.0283901 0.614512 0.775921
1436 4 0.0323566 0.624163 0.81044
177 2 0.134692 0.58412 0.766856
1312 4 0.416258 0.662129 0.808748
612 2 0.276327 0.670001 0.766238
614 4 0.268343 0.674373 0.801132
1313 4 0.440468 0.712638 0.763313
1311 2 0.428363 0.687383 0.786031
1062 2 0.284283 0.769917 0.801971
1064 4 0.26424 0.766518 0.772186
421 4 0.458075 0.828136 0.791611
420 2 0.47539 0.802182 0.773528
501 2 0.305946 0.913498 0.78466
503 4 0.329073 0.893241 0.803507
223 4 0.445067 0.904259 0.743228
1019 4 0.47434 0.862157 0.803491
278 4 0.10808 0.922985 0.820668
276 2 0.0979658 0.954792 0.834323
338 4 0.151387 0.915289 0.803393
653 4 0.272901 0.963252 0.793194
337 4 0.164809 0.973784 0.763395
336 2 0.158098 0.944536 0.783394
446 4 0.152064 0.913459 0.838701
502 4 0.282818 0.933755 0.765814
222 2 0.437821 0.923922 0.772574
866 4 0.462895 0.955943 0.801643
224 4 0.430574 0.943586 0.801921
1459 4 0.234085 0.0333238 0.868161
1075 4 0.39681 0.0425331 0.900128
796 4 0.15552 0.188098 0.915923
194 4 0.298694 0.207841 0.913708
903 2 0.0863708 0.317479 0.830859
956 4 0.126355 0.330834 0.887207
904 4 0.10625 0.312087 0.860459
32 3 0.237487 0.299139 0.878684
31 1 0.214383 0.278903 0.866139
34 3 0.184884 0.286138 0.880187
33 3 0.222845 0.247259 0.872991
248 4 0.183081 0.323229 0.846183
1076 4 0.445673 0.995875 0.925369
843 2 0.0831027 0.504552 0.848975
581 4 0.068944 0.421307 0.885048
579 2 0.0796311 0.428987 0.918622
923 4 0.0164405 0.452996 0.859709
845 4 0.0986058 0.473337 0.858229
1357 4 0.347664 0.303772 0.981677
1356 2 0.337902 0.269057 0.981568
844 4 0.0675996 0.535768 0.83972
160 4 0.114294 0.576414 0.873952
209 4 0.216954 0.557472 0.886122
1118 4 0.196907 0.559469 0.855125
207 2 0.218734 0.521457 0.885736
208 4 0.220514 0.485442 0.885348
159 2 0.11304 0.595101 0.904768
1004 4 0.424006 0.654205 0.926571
668 4 0.046993 0.665974 0.908833
313 4 0.0679071 0.732483 0.889258
312 2 0.103459 0.729409 0.884057
314 4 0.139009 0.726336 0.878854
835 4 0.168922 0.724663 0.896082
148 4 0.256507 0.712973 0.896032
147 2 0.253205 0.696931 0.863905
149 4 0.249903 0.68089 0.831778
976 4 0.451382 0.731205 0.869091
975 2 0.487376 0.729998 0.867252
38 3 0.00728381 0.780649 0.886252
39 3 0.0606355 0.769208 0.881038
36 1 0.0362981 0.77721 0.902569
37 3 0.0439025 0.806038 0.917121
1232 4 0.0051282 0.749694 0.907267
834 2 0.179998 0.748623 0.871512
836 4 0.191075 0.772583 0.846944
1063 4 0.304327 0.773315 0.831755
445 4 0.191962 0.909682 0.898663
444 2 0.172013 0.911571 0.868682
1371 2 0.332329 0.917665 0.859522
1372 4 0.332175 0.922317 0.823762
1373 4 0.332484 0.913014 0.895281
277 4 0.0878522 0.986598 0.847978
1458 2 0.233285 0.997278 0.867476
1138 4 0.0591119 0.0438171 0.997886
1020 2 0.165166 0.99929 0.933936
1021 4 0.177237 0.0330376 0.929962
1080 2 0.291545 0.0813005 0.927179
1081 4 0.266047 0.0563523 0.9219
422 4 0.492705 0.776227 0.755446
1074 2 0.421242 0.019204 0.912748
1157 4 0.424449 0.0687971 0.91316
1082 4 0.317043 0.106249 0.932457
790 4 0.346781 0.124694 0.957119
789 2 0.371032 0.10884 0.935649
791 4 0.395282 0.0929866 0.914178
1423 4 0.313606 0.126548 1.65022e-05
1156 4 0.473346 0.117463 0.934196
1155 2 0.448897 0.0931301 0.923677
952 4 0.0431647 0.211481 0.00192519
795 2 0.189065 0.186746 0.929088
797 4 0.222609 0.185395 0.942254
868 4 0.397945 0.224691 0.958316
192 2 0.316761 0.202939 0.944529
193 4 0.334829 0.198037 0.975351
1358 4 0.328141 0.234343 0.981459
1402 4 0.477288 0.234241 0.929605
869 4 0.46447 0.20203 0.942115
867 2 0.431207 0.213361 0.950216
495 2 0.211807 0.309813 0.994796
497 4 0.239387 0.288769 0.00464083
954 2 0.120298 0.345547 0.919568
955 4 0.114242 0.360259 0.95193
496 4 0.184228 0.330857 0.984952
559 4 0.377632 0.417467 0.965791
860 4 0.0809688 0.454779 0.979609
858 2 0.0758855 0.488715 0.968522
580 4 0.0903184 0.436667 0.952196
627 2 0.243915 0.457243 0.941688
629 4 0.233008 0.466451 0.908573
628 4 0.254823 0.448034 0.974804
558 2 0.403204 0.442177 0.959798
560 4 0.428777 0.466886 0.953805
684 2 0.475298 0.508634 0.927271
685 4 0.451043 0.498423 0.951926
859 4 0.0708022 0.522651 0.957434
679 4 0.0650991 0.551263 0.981632
566 4 0.158558 0.51658 0.971854
678 2 0.086723 0.579971 0.978684
564 2 0.185825 0.540166 0.972651
565 4 0.21309 0.563751 0.973448
948 2 0.343018 0.581492 0.945276
949 4 0.370866 0.562491 0.932475
1348 4 0.454048 0.496807 0.990648
848 4 0.194031 0.931378 0.926022
116 4 0.0760383 0.628471 0.992111
666 2 0.070397 0.654208 0.933616
161 4 0.111782 0.613782 0.935579
680 4 0.108345 0.608682 0.975738
1257 2 0.167038 0.622487 0.960309
827 4 0.113358 0.644304 0.994627
1258 4 0.134078 0.637081 0.960346
667 4 0.0937872 0.642445 0.958406
1259 4 0.200015 0.607894 0.960278
163 4 0.232803 0.582455 0.958118
162 2 0.24664 0.615569 0.954606
164 4 0.260478 0.648683 0.951094
950 4 0.315171 0.600493 0.958077
1003 4 0.392937 0.590607 0.940416
1002 2 0.408472 0.622406 0.933493
1265 4 0.00159787 0.640495 0.800444
830 4 0.081864 0.668834 0.986883
270 2 0.137705 0.698332 0.949434
272 4 0.117971 0.673973 0.967265
271 4 0.157436 0.722689 0.931606
493 4 0.198202 0.72451 0.927999
492 2 0.214242 0.698323 0.946904
494 4 0.23028 0.672135 0.965809
1101 2 0.346484 0.692658 0.00257473
1102 4 0.343534 0.728343 0.998298
40 3 0.0335443 0.753893 0.925538
424 4 0.0663586 0.771677 0.932563
423 2 0.0805111 0.791532 0.959133
1310 4 0.138781 0.836806 0.987345
425 4 0.0946621 0.811387 0.985702
1199 4 0.491898 0.798632 0.999746
847 4 0.177457 0.913538 0.993909
729 2 0.0559288 0.903682 0.999156
1309 4 0.0969875 0.886995 0.95675
1308 2 0.117884 0.8619 0.972047
730 4 0.0757159 0.878462 0.982639
546 2 0.469721 0.840224 0.92793
548 4 0.438573 0.852996 0.915004
262 4 0.00703834 0.94965 1.17689e-06
1022 4 0.153095 0.965542 0.93791
68 4 0.131741 0.978834 0.962802
846 2 0.185745 0.922458 0.959965
7 3 0.00405649 0.504172 0.562519
1096 4 0.528663 0.069579 0.0277819
635 4 0.547703 0.0480677 0.00661136
633 2 0.567443 0.0183654 0.0119486
386 4 0.655048 0.0614796 0.0189923
673 4 0.810104 0.0591652 0.0621856
266 4 0.920769 0.0264672 0.00199886
1095 2 0.527468 0.105097 0.0339016
1097 4 0.526272 0.140615 0.0400219
24 3 0.908242 0.125038 0.082916
172 4 0.557935 0.267147 0.0485166
171 2 0.550466 0.245356 0.0762614
1478 4 0.605762 0.186042 0.0137257
189 2 0.821344 0.202732 0.0548149
190 4 0.785489 0.205558 0.0522058
191 4 0.857199 0.199906 0.0574237
70 4 0.558456 0.247499 0.0171208
595 4 0.729107 0.265904 0.0175301
988 4 0.696428 0.27218 0.0325711
594 2 0.760594 0.282011 0.0245704
596 4 0.79208 0.298119 0.0316111
1215 2 0.614013 0.35831 0.0697881
1216 4 0.602334 0.345838 0.0380323
745 4 0.69182 0.366233 0.0632055
373 4 0.931369 0.962708 0.483566
1379 4 0.692928 0.496632 0.0715128
1377 2 0.696192 0.462873 0.0837658
95 4 0.87272 0.447579 0.0264622
752 4 0.997632 0.421158 0.00804288
1386 2 0.996132 0.124761 0.467901
925 4 0.565545 0.507414 0.0465974
924 2 0.598497 0.518379 0.0563099
756 2 0.664077 0.578775 0.0362744
757 4 0.638443 0.566664 0.0585606
926 4 0.631449 0.529346 0.0660225
1475 4 0.998084 0.852883 0.406474
758 4 0.68971 0.590886 0.0139884
893 4 0.853421 0.6435 0.0476597
861 2 0.961112 0.608419 0.00527443
1015 4 0.967083 0.606298 0.0750113
1515 2 0.940456 0.664858 0.0599551
1517 4 0.961722 0.636254 0.0544807
862 4 0.981318 0.631955 0.0236651
1304 4 0.501056 0.720999 0.0533546
1127 4 0.595084 0.689656 0.0127272
891 2 0.832422 0.671399 0.038656
469 4 0.832162 0.733855 0.0193714
892 4 0.811424 0.699299 0.0296527
1316 4 0.894769 0.734505 0.0205548
517 4 0.948888 0.717895 0.0670133
1198 4 0.517012 0.751701 0.048412
470 4 0.796983 0.78822 0.0511291
468 2 0.814573 0.761038 0.0352501
103 4 0.787068 0.813976 0.0315845
1317 2 0.517316 0.886054 0.0150228
1319 4 0.551016 0.891203 0.00326608
102 2 0.807513 0.838224 0.0487447
104 4 0.827957 0.862472 0.0659053
634 4 0.587183 0.988663 0.0172863
1037 4 0.586104 0.963042 0.0962606
1411 4 0.719615 0.946685 0.0897855
1173 2 0.767582 0.964412 0.0570099
1174 4 0.779999 0.973379 0.0243629
1035 2 0.591868 0.998586 0.0943244
1036 4 0.597633 0.0341314 0.0923878
371 4 0.753203 0.0462716 0.153793
672 2 0.823584 0.0786095 0.0894
674 4 0.837063 0.0980536 0.116614
1009 4 0.862801 0.0777502 0.120747
1008 2 0.875056 0.0609134 0.150187
92 4 0.754583 0.769749 0.00155055
1331 4 0.572052 0.116786 0.11921
769 4 0.676008 0.625906 0.00680146
1329 2 0.593643 0.141006 0.103476
1330 4 0.615235 0.165227 0.0877412
1448 4 0.797265 0.142058 0.148571
21 1 0.921646 0.110615 0.109975
22 3 0.946634 0.091001 0.100407
23 3 0.933597 0.134042 0.130671
597 2 0.980039 0.16127 0.154319
25 3 0.898993 0.0925235 0.125414
599 4 0.944415 0.158044 0.158888
173 4 0.542997 0.223565 0.104006
1355 4 0.750718 0.224673 0.148163
1353 2 0.764387 0.223432 0.114816
1354 4 0.778056 0.222191 0.0814692
310 4 0.556104 0.316371 0.122236
309 2 0.54911 0.325298 0.156467
52 4 0.847172 0.281643 0.0931558
51 2 0.868783 0.284507 0.121881
53 4 0.890395 0.287371 0.150606
1217 4 0.625693 0.370782 0.101544
744 2 0.689264 0.38567 0.0934717
1048 4 0.837577 0.390022 0.107727
1047 2 0.843163 0.355044 0.100964
1049 4 0.84875 0.320065 0.0942012
1378 4 0.699457 0.429115 0.0960189
746 4 0.686708 0.405108 0.123738
499 4 0.532389 0.562779 0.126418
524 4 0.567463 0.557454 0.137618
522 2 0.592534 0.543561 0.159503
498 2 0.498769 0.562914 0.113377
887 4 0.894658 0.503837 0.132482
1014 2 0.947573 0.578821 0.0878469
1016 4 0.928063 0.551343 0.100683
885 2 0.922325 0.509281 0.154962
188 4 0.839225 0.620388 0.142163
186 2 0.844344 0.643033 0.11457
187 4 0.849463 0.665679 0.0869763
1516 4 0.919189 0.693462 0.0654291
518 4 0.962311 0.752817 0.128673
516 2 0.955599 0.735356 0.0978432
73 4 0.933554 0.686603 0.153961
788 4 0.836077 0.812838 0.118097
786 2 0.857842 0.80146 0.144503
787 4 0.879607 0.790083 0.170908
1450 4 0.824144 0.981676 0.501489
374 4 0.860411 0.972888 0.491502
288 2 0.761406 0.927569 0.141769
1376 4 0.834251 0.845001 0.0987582
1374 2 0.854181 0.872051 0.111854
1222 4 0.917556 0.902283 0.162799
1375 4 0.874112 0.899101 0.124951
368 4 0.882123 0.8972 0.165367
1221 2 0.951841 0.891222 0.161181
1223 4 0.986126 0.880162 0.159563
113 4 0.51785 0.928319 0.115959
1412 4 0.662367 0.985269 0.110657
1175 4 0.755164 0.955445 0.0896567
1410 2 0.690991 0.965977 0.100222
290 4 0.759627 0.921091 0.106338
370 4 0.774516 0.979871 0.135399
369 2 0.76386 0.0130714 0.144596
1010 4 0.887312 0.0440763 0.179626
1297 4 0.982959 0.034232 0.230018
1498 4 0.953637 0.0197243 0.241497
591 2 0.574092 0.161745 0.239474
214 4 0.722559 0.0728239 0.236199
1446 2 0.823636 0.126413 0.167551
1447 4 0.850007 0.110767 0.18653
1465 4 0.860413 0.109106 0.224524
1464 2 0.856662 0.0870777 0.252829
592 4 0.581963 0.187404 0.215389
1431 2 0.616013 0.244262 0.211376
1432 4 0.613097 0.212108 0.22744
307 4 0.898867 0.202148 0.25942