ITEM: TIMESTEP
1103000
ITEM: NUMBER OF ATOMS
1520
ITEM: BOX BOUNDS pp pp pp
-6.9326749999999997e+00 6.9326749999999997e+00
-6.9326749999999997e+00 6.9326749999999997e+00
-6.9326749999999997e+00 6.9326749999999997e+00
ITEM: ATOMS id type xs ys zs
404 4 0.112854 0.0874636 0.0352396
1386 2 0.186252 0.079671 0.0446234
1388 4 0.201652 0.0840776 0.0123151
490 4 0.385909 0.0177239 0.0116415
22 3 0.404174 0.998614 0.0441642
652 4 0.329775 0.0824379 0.0430953
489 2 0.420013 0.0283088 0.0166696
491 4 0.454116 0.0388932 0.0216985
1130 4 0.099488 0.164978 0.0910732
1387 4 0.170851 0.0752651 0.0769327
956 4 0.24569 0.155677 0.087435
416 4 0.345216 0.122108 0.0786376
1414 4 0.259879 0.856423 0.493313
1128 2 0.0892314 0.166645 0.0565416
1129 4 0.0789739 0.168314 0.0220096
371 4 0.415175 0.182345 0.0259038
369 2 0.412578 0.212618 0.00648109
846 2 0.476423 0.847381 0.285298
199 4 0.413438 0.270817 0.00923537
80 4 0.17624 0.29426 0.0429833
791 4 0.0050928 0.408922 0.0962213
664 4 0.103193 0.408975 0.0503801
665 4 0.0958097 0.356993 0.0998263
663 2 0.0995015 0.382985 0.0751038
79 4 0.163088 0.365162 0.0443079
78 2 0.169664 0.329711 0.0436453
375 2 0.16303 0.430109 0.0356588
376 4 0.164226 0.401238 0.057233
541 4 0.00955701 0.891023 0.124292
1225 4 0.39913 0.375005 0.043545
1224 2 0.408728 0.393039 0.0138286
377 4 0.161834 0.458979 0.0140842
1148 4 0.485477 0.607072 0.0610017
1003 4 0.0571512 0.596044 0.0122576
358 4 0.244186 0.504362 0.0969267
357 2 0.271804 0.519084 0.0790117
784 4 0.3134 0.567763 0.0567581
359 4 0.299422 0.533805 0.0610962
1298 4 0.460595 0.53499 0.0292388
1296 2 0.426268 0.544416 0.0234768
783 2 0.340996 0.575049 0.0347172
1297 4 0.391941 0.553843 0.0177133
1147 4 0.487018 0.561931 0.117229
81 2 0.0921377 0.59774 0.0731355
83 4 0.11522 0.591006 0.0462605
785 4 0.368592 0.582333 0.0126748
1146 2 0.486247 0.584501 0.0891154
509 4 0.236097 0.544075 0.023039
388 4 0.0406051 0.764772 0.0459923
613 4 0.139634 0.670375 0.0626293
743 4 0.189945 0.770642 0.99497
868 4 0.490319 0.388885 0.469833
651 2 0.364206 0.0884438 0.0519731
1447 4 0.182279 0.749557 0.024815
1446 2 0.208532 0.768166 0.0410909
1448 4 0.234785 0.786775 0.0573671
151 4 0.394448 0.789343 0.0559832
150 2 0.4126 0.818015 0.0437861
264 2 0.196816 0.984592 0.139059
265 4 0.215815 0.960163 0.120548
572 4 0.368375 0.893348 0.0592076
1183 4 0.395341 0.878903 0.0782814
1182 2 0.384532 0.863658 0.109123
570 2 0.357577 0.904075 0.0265158
200 4 0.352344 0.308681 0.015184
232 4 0.0300548 0.983863 0.0962575
152 4 0.430751 0.846688 0.0315881
23 3 0.407413 0.948208 0.0638437
24 3 0.369996 0.983212 0.0833189
21 1 0.386517 0.973147 0.0560116
25 3 0.36523 0.963148 0.0330833
402 2 0.115751 0.0874534 0.0711835
403 4 0.11865 0.0874438 0.107128
343 4 0.271722 0.0683838 0.177076
89 4 0.465961 0.0348581 0.124429
718 4 0.0721956 0.102676 0.173514
1111 4 0.25411 0.164296 0.16208
1110 2 0.226189 0.171887 0.140557
1112 4 0.198269 0.179478 0.119035
954 2 0.266965 0.170931 0.0626328
955 4 0.288239 0.186184 0.0378308
415 4 0.350837 0.150726 0.1446
414 2 0.348027 0.136417 0.111619
945 2 0.373963 0.214053 0.101768
946 4 0.367676 0.205312 0.0673516
1278 2 0.401425 0.275231 0.163989
626 4 0.333695 0.357841 0.160615
947 4 0.380249 0.222794 0.136183
723 2 0.479973 0.337183 0.101207
1279 4 0.380977 0.258446 0.139483
724 4 0.458279 0.365979 0.101952
787 4 0.152481 0.919875 0.385116
1175 4 0.132358 0.357585 0.101487
1173 2 0.162023 0.356757 0.121974
1174 4 0.191689 0.35593 0.142461
1057 4 0.232257 0.43332 0.139643
624 2 0.34701 0.346508 0.129076
625 4 0.360325 0.335177 0.0975371
789 2 0.00557523 0.425283 0.128355
904 4 0.0269407 0.441739 0.194762
790 4 0.00605679 0.441642 0.160489
1058 4 0.208645 0.376707 0.177579
1056 2 0.220451 0.405013 0.158611
1166 4 0.23586 0.523353 0.126357
1164 2 0.221953 0.552088 0.143129
1484 4 0.360106 0.48864 0.15411
444 2 0.388114 0.549375 0.138484
446 4 0.363912 0.523809 0.146297
82 4 0.0690552 0.604474 0.10001
1165 4 0.208045 0.580823 0.1599
387 2 0.0765465 0.764043 0.048837
44 3 0.0689155 0.708169 0.139765
614 4 0.145542 0.740566 0.0471348
612 2 0.142588 0.70547 0.0548822
389 4 0.112487 0.763314 0.0516822
1372 4 0.209104 0.797784 0.155618
1371 2 0.184171 0.771752 0.154625
1373 4 0.159236 0.745718 0.153632
1406 4 0.390702 0.753271 0.13556
170 4 0.41795 0.651125 0.153364
1404 2 0.388393 0.717755 0.129757
1405 4 0.386084 0.682239 0.123952
994 4 0.254008 0.80716 0.122229
993 2 0.269345 0.823695 0.150368
995 4 0.284681 0.840231 0.178507
229 4 0.363355 0.882723 0.151741
1184 4 0.373723 0.848414 0.139964
198 2 0.382891 0.289749 0.01221
266 4 0.177818 0.00902376 0.15757
1007 4 0.463399 0.967175 0.145936
1005 2 0.449457 0.949815 0.117569
1006 4 0.435515 0.932455 0.0892029
342 2 0.289864 0.0969974 0.164725
344 4 0.308005 0.125611 0.152374
87 2 0.441883 0.0320864 0.15113
919 4 0.366806 0.0295628 0.210585
918 2 0.343913 0.0186671 0.236229
1247 4 0.428712 0.995932 0.193979
717 2 0.0901017 0.126088 0.19429
719 4 0.108008 0.1495 0.215066
352 4 0.118829 0.122578 0.235649
351 2 0.152124 0.109393 0.239893
281 4 0.38418 0.13419 0.178078
279 2 0.417012 0.128604 0.191909
280 4 0.449843 0.123018 0.20574
236 4 0.197096 0.159167 0.223982
1280 4 0.421873 0.292016 0.188496
585 2 0.466181 0.258186 0.234391
587 4 0.443008 0.273017 0.211079
315 2 0.999238 0.387468 0.259936
316 4 0.0345637 0.383797 0.266182
106 4 0.0579583 0.357258 0.253494
105 2 0.0797577 0.367268 0.226568
107 4 0.101557 0.377276 0.199642
178 4 0.188652 0.393428 0.202956
903 2 0.0365379 0.476406 0.197323
905 4 0.046134 0.511072 0.199883
179 4 0.11756 0.40548 0.204486
177 2 0.153106 0.399453 0.203721
1482 2 0.346389 0.482844 0.186953
1483 4 0.332672 0.477049 0.219796
821 4 0.431704 0.46417 0.26472
93 2 0.340623 0.563251 0.226948
445 4 0.412316 0.574942 0.130671
95 4 0.363397 0.537605 0.238085
819 2 0.442451 0.493469 0.246651
820 4 0.453198 0.522769 0.228583
668 4 0.140617 0.644432 0.230808
1181 4 0.157973 0.6387 0.199176
1180 4 0.18648 0.584758 0.237636
1179 2 0.172226 0.61173 0.218406
94 4 0.317849 0.588898 0.215812
1451 4 0.300031 0.587532 0.246185
169 4 0.368892 0.652128 0.206221
160 4 0.0388666 0.700598 0.220338
41 1 0.0773428 0.699473 0.170962
45 3 0.0617635 0.718706 0.192554
43 3 0.110446 0.70221 0.175038
157 4 0.171375 0.718237 0.173284
42 3 0.0684822 0.66791 0.176062
156 2 0.157181 0.722691 0.206134
158 4 0.142987 0.727144 0.238984
168 2 0.393421 0.651627 0.179792
1037 4 0.443513 0.699506 0.239029
1035 2 0.467038 0.683159 0.260931
244 4 0.337678 0.813441 0.17221
243 2 0.330644 0.820806 0.206803
756 2 0.144927 0.900958 0.225023
757 4 0.112675 0.904116 0.209203
823 4 0.284703 0.926895 0.251099
824 4 0.224423 0.910571 0.215023
822 2 0.254563 0.918734 0.233061
228 2 0.37375 0.906299 0.176971
245 4 0.323609 0.82817 0.241396
758 4 0.177179 0.897799 0.240843
920 4 0.32102 0.00777232 0.261873
230 4 0.384143 0.929875 0.2022
505 4 0.401885 0.942105 0.230596
1245 2 0.42598 0.0108137 0.226713
88 4 0.417804 0.0293145 0.177832
1395 2 0.236743 0.0422212 0.267127
1397 4 0.255158 0.0341012 0.237204
1396 4 0.218327 0.0503406 0.29705
353 4 0.185418 0.096208 0.244137
235 4 0.238997 0.167011 0.282159
776 4 0.436781 0.146083 0.309252
775 4 0.462844 0.138195 0.376039
774 2 0.449811 0.142138 0.342646
234 2 0.218046 0.16309 0.253071
296 4 0.268883 0.151383 0.300783
295 4 0.32618 0.186976 0.275251
294 2 0.297531 0.16918 0.288017
1191 2 0.484753 0.196106 0.297049
1360 4 0.337481 0.356905 0.316065
1137 2 0.215812 0.41487 0.343932
1138 4 0.210964 0.436207 0.315268
751 4 0.326632 0.462688 0.251275
750 2 0.361707 0.463257 0.259629
752 4 0.396782 0.463825 0.267983
1092 2 0.0161325 0.568666 0.327607
1093 4 0.0502298 0.578099 0.320621
271 4 0.0434382 0.606204 0.296034
270 2 0.065919 0.633226 0.304089
272 4 0.0884072 0.660259 0.312143
830 4 0.127964 0.649381 0.313424
1449 2 0.284164 0.598327 0.276715
1450 4 0.268297 0.609122 0.307246
159 2 0.0579394 0.688303 0.248365
161 4 0.077017 0.67601 0.276398
666 2 0.128152 0.661883 0.259799
1258 4 0.0865067 0.701066 0.306905
667 4 0.115676 0.679328 0.2888
680 4 0.124918 0.715497 0.30493
116 4 0.150765 0.683616 0.308854
114 2 0.186264 0.689933 0.309832
115 4 0.221755 0.696243 0.310811
347 4 0.218789 0.66513 0.329138
961 4 0.332651 0.650291 0.256551
962 4 0.378348 0.705159 0.246408
960 2 0.355499 0.677725 0.251479
702 2 0.402969 0.743055 0.316469
761 4 0.48679 0.673113 0.317705
1036 4 0.490564 0.666811 0.282832
703 4 0.393872 0.708293 0.313431
678 2 0.130554 0.737368 0.276826
679 4 0.136194 0.759256 0.248728
1024 4 0.376353 0.787925 0.32565
704 4 0.412067 0.777817 0.319508
1025 4 0.336024 0.818814 0.274452
1023 2 0.356188 0.803369 0.300051
653 4 0.398638 0.0944501 0.0608511
556 4 0.283256 0.847963 0.307088
555 2 0.295278 0.873915 0.32905
506 4 0.391556 0.889809 0.279177
1391 4 0.0147328 0.982032 0.327587
141 2 0.174287 0.951842 0.333034
143 4 0.199255 0.937842 0.354965
557 4 0.3073 0.899868 0.351012
1488 2 0.300079 0.950188 0.289151
504 2 0.39672 0.915957 0.254886
1490 4 0.304409 0.976692 0.265085
1246 4 0.423248 0.0256968 0.259445
1390 4 0.057476 0.0367655 0.347052
142 4 0.149317 0.965841 0.311103
921 2 0.3119 0.0264777 0.337487
923 4 0.308574 0.990917 0.332512
922 4 0.315226 0.0620384 0.342461
221 4 0.13568 0.976019 0.441665
247 4 0.493048 0.202567 0.466532
246 2 0.466774 0.207781 0.442389
1192 4 0.461341 0.170303 0.28775
248 4 0.440498 0.212994 0.418248
1150 4 0.163557 0.331142 0.375361
1149 2 0.197377 0.342499 0.370105
1171 4 0.345488 0.313227 0.39999
1361 4 0.365133 0.333516 0.378434
1359 2 0.351307 0.34521 0.34725
1349 4 0.0537507 0.40085 0.381572
1347 2 0.0894491 0.397799 0.377487
1139 4 0.220659 0.393533 0.372597
1151 4 0.231197 0.353855 0.364847
1033 4 0.237753 0.350607 0.397054
1367 4 0.0528654 0.41599 0.415603
1348 4 0.125149 0.394748 0.373401
887 4 0.139626 0.417759 0.396488
885 2 0.136886 0.44918 0.413972
623 4 0.328533 0.496944 0.457994
622 4 0.320641 0.473069 0.390398
621 2 0.324587 0.485007 0.424196
959 4 0.0394486 0.554461 0.430235
828 2 0.142648 0.626636 0.337264
829 4 0.157326 0.603902 0.361099
346 4 0.283289 0.646531 0.355511
550 4 0.446742 0.643815 0.357307
551 4 0.447531 0.613692 0.422832
549 2 0.447136 0.628754 0.39007
136 4 0.484361 0.606582 0.410225
1259 4 0.0291221 0.729295 0.340267
1257 2 0.0578124 0.715185 0.323586
825 2 0.126466 0.699848 0.360586
827 4 0.11583 0.684537 0.329701
826 4 0.137095 0.715141 0.391466
345 2 0.251039 0.655831 0.342324
1481 4 0.268481 0.659328 0.386608
1160 4 0.228283 0.785522 0.453684
1252 4 0.489234 0.796916 0.407713
694 4 0.0756358 0.943075 0.414098
1251 2 0.480635 0.827032 0.389838
1253 4 0.472036 0.857147 0.371963
1389 2 0.0361041 0.00939863 0.33732
985 4 0.200945 0.960541 0.382781
986 4 0.22917 0.945186 0.44735
984 2 0.215057 0.952863 0.415066
1325 4 0.33055 0.887536 0.380799
1489 4 0.295748 0.923683 0.313217
1324 4 0.306203 0.953137 0.398273
1323 2 0.318377 0.920337 0.389536
1428 2 0.316528 0.841991 0.473951
394 4 0.0321621 0.0194259 0.454154
393 2 0.0405093 0.0538863 0.447579
219 2 0.15265 0.00769188 0.438626
220 4 0.169619 0.0393663 0.43559
50 3 0.193792 0.0392959 0.468037
298 4 0.00614972 0.699195 0.341473
46 1 0.219306 0.0270071 0.484678
1031 4 0.146816 0.593655 0.487179
48 3 0.243721 0.0184403 0.463455
405 2 0.388216 0.0286981 0.482961
407 4 0.381528 0.993265 0.483399
395 4 0.0488567 0.0883462 0.441003
1012 4 0.330758 0.234385 0.444853
1011 2 0.326858 0.199862 0.435194
1013 4 0.322958 0.165338 0.425535
692 4 0.478742 0.220283 0.498824
148 4 0.0162102 0.633856 0.999791
1430 4 0.280736 0.839006 0.470719
1131 2 0.145621 0.343927 0.477714
1132 4 0.120286 0.369542 0.479264
1133 4 0.170956 0.318312 0.476164
584 4 0.49439 0.0844857 0.438312
1170 2 0.341368 0.301428 0.433816
1172 4 0.337247 0.289629 0.467642
991 4 0.309189 0.304038 0.483718
1032 2 0.25382 0.36432 0.42628
1034 4 0.269887 0.378033 0.455508
1466 4 0.279145 0.410109 0.469537
980 4 0.384568 0.0976816 0.4967
1429 4 0.352319 0.844975 0.477183
1365 2 0.0327085 0.44355 0.427203
1366 4 0.0125511 0.47111 0.438802
886 4 0.134146 0.480601 0.431455
1464 2 0.294667 0.436596 0.488455
847 4 0.453802 0.874379 0.277566
957 2 0.0642861 0.549901 0.455978
1249 4 0.125181 0.472359 0.467865
958 4 0.0891235 0.545342 0.481721
1248 2 0.119699 0.503158 0.485802
139 4 0.47895 0.152772 0.999268
574 4 0.0142961 0.951248 0.310811
606 2 0.344011 0.512348 0.496889
1072 4 0.0194215 0.583275 0.439474
1030 4 0.163896 0.659944 0.464471
709 4 0.487866 0.515413 0.0313226
1029 2 0.155356 0.6268 0.475825
13 3 0.433086 0.635095 0.444632
1499 4 0.394371 0.64936 0.437376
15 3 0.395598 0.657608 0.476826
11 1 0.424375 0.641784 0.476242
14 3 0.422124 0.613345 0.493736
12 3 0.447688 0.660995 0.489957
586 4 0.489354 0.243354 0.257702
927 2 0.270262 0.704304 0.488606
1479 2 0.288225 0.682285 0.406191
1480 4 0.307971 0.705243 0.425775
928 4 0.279551 0.692759 0.45573
1498 4 0.3435 0.693904 0.412284
1497 2 0.368935 0.671632 0.42483
656 4 0.171339 0.783243 0.435633
654 2 0.163685 0.814144 0.452573
1158 2 0.254628 0.79548 0.431164
655 4 0.15603 0.845044 0.469513
695 4 0.0335515 0.884992 0.421641
693 2 0.0545933 0.914034 0.417869
786 2 0.157041 0.896138 0.411877
788 4 0.1616 0.8724 0.43864
1159 4 0.280974 0.805439 0.408644
406 4 0.394903 0.0641311 0.482523
607 4 0.360191 0.531762 0.471166
100 4 0.457631 0.827257 0.00968963
507 2 0.230352 0.572946 0.00220848
53 4 0.202459 0.0978148 0.55666
51 2 0.229724 0.0881817 0.535113
52 4 0.256988 0.0785486 0.513566
101 4 0.445939 0.805224 0.942018
385 4 0.167647 0.114202 0.546278
384 2 0.134963 0.123744 0.534395
386 4 0.10228 0.133285 0.522512
62 4 0.301278 0.0818508 0.55036
978 2 0.409935 0.114757 0.515814
979 4 0.435303 0.131833 0.534928
976 4 0.364761 0.166956 0.540484
9 3 0.0162503 0.0118765 0.809499
883 4 0.040949 0.241566 0.536557
975 2 0.378318 0.199784 0.534249
977 4 0.391876 0.232613 0.528013
691 4 0.418316 0.25728 0.512303
882 2 0.0199208 0.254459 0.510251
218 4 0.152942 0.331758 0.599137
216 2 0.172084 0.354372 0.57858
992 4 0.251037 0.291061 0.524358
581 4 0.0185247 0.401323 0.521488
217 4 0.191226 0.376986 0.558023
1344 2 0.466874 0.3646 0.527056
412 4 0.434628 0.344663 0.579095
1346 4 0.453787 0.336899 0.54608
578 4 0.452664 0.462101 0.527004
223 4 0.435249 0.488249 0.532617
576 2 0.485258 0.475318 0.519046
457 4 0.151227 0.518985 0.559277
1289 4 0.43463 0.338342 0.798222
222 2 0.412871 0.493767 0.560351
239 4 0.415043 0.647044 0.514835
237 2 0.402494 0.653979 0.547925
92 4 0.0449243 0.681253 0.506533
1233 2 0.217413 0.688953 0.548638
1235 4 0.191722 0.665384 0.539424
1234 4 0.243103 0.712523 0.557851
794 4 0.0316083 0.0511379 0.716435
929 4 0.260972 0.715848 0.521482
1239 2 0.489171 0.6963 0.551352
90 2 0.00909678 0.680853 0.510612
1415 4 0.237433 0.874387 0.559456
1413 2 0.248655 0.865405 0.526383
812 4 0.0288071 0.170209 0.740248
1424 4 0.488733 0.22831 0.942044
396 2 0.124796 0.953816 0.540507
397 4 0.142616 0.922791 0.536002
121 4 0.175086 0.926402 0.53354
120 2 0.20038 0.948243 0.547088
122 4 0.225676 0.970083 0.560636
434 4 0.259529 0.982111 0.56406
432 2 0.27662 0.951201 0.556792
433 4 0.293713 0.920291 0.549524
1168 4 0.489351 0.96893 0.654051
167 4 0.125629 0.979029 0.637751
61 4 0.281685 0.077521 0.619634
531 2 0.325735 0.0299845 0.642084
532 4 0.351254 0.0165519 0.663736
520 4 0.111419 0.114955 0.632865
519 2 0.112699 0.149642 0.642644
60 2 0.291481 0.079686 0.584997
533 4 0.300217 0.0434178 0.620433
1393 4 0.387339 0.189617 0.585916
1394 4 0.377377 0.122045 0.609077
1392 2 0.382358 0.155831 0.597497
521 4 0.11398 0.184328 0.652422
1265 4 0.0863206 0.203643 0.637941
1263 2 0.0884198 0.222059 0.607008
1264 4 0.0905189 0.240475 0.576075
1477 4 0.264374 0.280484 0.648774
1476 2 0.297662 0.28174 0.662585
1370 4 0.0308604 0.363985 0.67679
1368 2 0.0182372 0.396834 0.668917
413 4 0.485081 0.373779 0.62162
411 2 0.459855 0.359221 0.600359
500 4 0.0121974 0.441204 0.69543
472 4 0.311476 0.450329 0.63394
1077 2 0.465983 0.501143 0.648508
1079 4 0.477227 0.467161 0.644127
456 2 0.135244 0.551277 0.56074
437 4 0.215256 0.497537 0.645904
473 4 0.354667 0.495203 0.597574
471 2 0.333072 0.472766 0.615757
224 4 0.390493 0.499287 0.588084
458 4 0.119262 0.58357 0.562203
552 2 0.1639 0.629331 0.57635
554 4 0.134994 0.608894 0.583219
553 4 0.192806 0.649767 0.56948
238 4 0.389945 0.660914 0.581012
1290 2 0.451307 0.609599 0.635681
1292 4 0.448628 0.622652 0.66919
1291 4 0.453985 0.596545 0.602173
1241 4 0.477736 0.730081 0.556697
1302 2 0.492571 0.769927 0.579547
608 4 0.327832 0.492933 0.522614
1100 4 0.00725887 0.792207 0.546434
1098 2 0.0358274 0.780703 0.565194
1177 4 0.162436 0.846864 0.58843
1303 4 0.47512 0.792999 0.601078
1039 4 0.455375 0.776679 0.700893
482 4 0.121569 0.85526 0.680353
1418 4 0.0982378 0.850138 0.65161
1178 4 0.234402 0.846113 0.583751
1176 2 0.198419 0.846489 0.58609
1055 4 0.336955 0.921601 0.955702
398 4 0.106975 0.98484 0.545012
63 2 0.0238243 0.987947 0.625102
166 4 0.183148 0.00382912 0.673504
165 2 0.154389 0.991429 0.655628
302 4 0.366659 0.949195 0.550461
301 4 0.356913 0.965988 0.619921
300 2 0.361786 0.957591 0.58519
256 4 0.477236 0.00196764 0.649673
1054 4 0.279925 0.959578 0.978218
881 4 0.450502 0.00702616 0.744899
257 4 0.475754 0.0141666 0.720742
255 2 0.476495 0.00806698 0.685207
706 4 0.139867 0.182375 0.699766
712 4 0.475178 0.18373 0.662148
707 4 0.154226 0.183574 0.770434
705 2 0.147047 0.182974 0.7351
184 4 0.264672 0.18325 0.75414
183 2 0.230582 0.175945 0.744926
896 4 0.29845 0.219311 0.756037
711 2 0.447419 0.186282 0.685023
713 4 0.419659 0.188836 0.707899
894 2 0.304274 0.245972 0.732465
603 2 0.0809496 0.317679 0.672531
605 4 0.105471 0.293101 0.68228
1478 4 0.330948 0.282995 0.676398
604 4 0.0564285 0.342258 0.662783
144 2 0.357987 0.950978 0.893053
1254 2 0.131276 0.404248 0.75717
1256 4 0.119816 0.382734 0.730595
1255 4 0.142736 0.425761 0.783745
75 2 0.4757 0.39173 0.673843
76 4 0.457881 0.385084 0.704482
498 2 0.00272987 0.472135 0.679491
436 4 0.146606 0.516354 0.657516
1016 4 0.318095 0.452202 0.785914
773 4 0.335174 0.478276 0.766422
771 2 0.340956 0.491013 0.733184
772 4 0.346739 0.50375 0.699946
770 4 0.375807 0.532943 0.698747
768 2 0.406812 0.517349 0.708547
742 4 0.126591 0.783954 0.963178
1237 4 0.0918503 0.492115 0.7834
435 2 0.180931 0.506945 0.65171
769 4 0.437814 0.501754 0.718346
782 4 0.472937 0.646677 0.660539
780 2 0.48766 0.667678 0.685889
326 4 0.0590445 0.68971 0.835158
1328 4 0.00556153 0.677912 0.676741
1038 2 0.466659 0.742597 0.697506
1040 4 0.477943 0.708515 0.694118
1417 4 0.0305893 0.86493 0.671775
1416 2 0.0644138 0.857534 0.661692
202 4 0.0531142 0.930463 0.739668
480 2 0.15595 0.865728 0.683313
481 4 0.190332 0.876195 0.686272
361 4 0.210935 0.904376 0.693917
360 2 0.232535 0.894727 0.721133
362 4 0.254135 0.885078 0.748349
64 4 0.0563263 0.977732 0.613283
201 2 0.0310197 0.956594 0.751044
439 4 0.391027 0.954864 0.620253
438 2 0.392585 0.968006 0.653799
440 4 0.394143 0.981148 0.687344
879 2 0.41704 0.998443 0.734554
792 2 0.019188 0.0357819 0.746608
1465 4 0.31019 0.463084 0.507373
511 4 0.256602 0.969043 0.766648
510 2 0.246407 0.998225 0.785219
512 4 0.236212 0.0274068 0.803791
1352 4 0.142359 0.100597 0.822204
1350 2 0.129099 0.0717375 0.805123
1189 4 0.168204 0.130644 0.833146
1188 2 0.169823 0.144607 0.799936
1461 2 0.296612 0.127244 0.768926
1462 4 0.268513 0.131665 0.791092
185 4 0.196491 0.168639 0.735713
1190 4 0.171442 0.158567 0.766726
163 4 0.311623 0.200824 0.784894
895 4 0.310097 0.272635 0.708892
328 4 0.435578 0.217433 0.829351
329 4 0.403752 0.265186 0.785664
327 2 0.419665 0.24131 0.807507
942 2 0.207415 0.400086 0.780627
944 4 0.171406 0.398565 0.781839
943 4 0.243424 0.401608 0.779415
1015 4 0.277128 0.395926 0.767037
1288 4 0.446364 0.369027 0.734016
1287 2 0.440497 0.353684 0.76612
1014 2 0.297612 0.424064 0.776475
1238 4 0.102054 0.563063 0.791405
1236 2 0.0969519 0.527589 0.787402
285 2 0.184272 0.544513 0.827745
287 4 0.173712 0.510442 0.82245
155 4 0.453796 0.544151 0.854655
1009 4 0.121876 0.592866 0.804178
1008 2 0.142032 0.611266 0.827749
123 2 0.273915 0.666511 0.813625
124 4 0.264059 0.693928 0.792372
303 2 0.376086 0.637928 0.742989
304 4 0.363382 0.606651 0.730314
324 2 0.0802893 0.715065 0.8208
325 4 0.101533 0.740421 0.806441
125 4 0.28377 0.639094 0.834877
305 4 0.38879 0.669207 0.755664
268 4 0.257773 0.737126 0.788018
269 4 0.250841 0.803901 0.814372
267 2 0.254307 0.770514 0.801195
1020 2 0.273882 0.879822 0.809896
1022 4 0.274856 0.88268 0.845831
1021 4 0.27291 0.876964 0.773963
910 4 0.459445 0.831506 0.755068
909 2 0.4701 0.80356 0.775214
911 4 0.480754 0.775613 0.795361
990 2 0.280113 0.297549 0.504038
203 4 0.00892554 0.982726 0.76242
880 4 0.383578 0.989859 0.724208
1018 4 0.421125 0.0270553 0.804474
1351 4 0.115839 0.0428781 0.788043
529 4 0.155565 0.0663244 0.936234
1059 2 0.333538 0.0151275 0.857119
1061 4 0.342174 0.0428465 0.878508
336 2 0.388129 0.0249622 0.913139
338 4 0.423203 0.0210071 0.920523
1420 4 0.445043 0.997176 0.907792
1419 2 0.464595 0.996499 0.877499
132 2 0.267909 0.0618413 0.84873
134 4 0.286086 0.0915123 0.858195
133 4 0.249731 0.0321685 0.839265
1463 4 0.32471 0.122823 0.746761
731 4 0.287259 0.193564 0.850128
164 4 0.357374 0.173899 0.833717
1081 4 0.39504 0.165489 0.847671
1080 2 0.416954 0.170616 0.875849
1421 4 0.484147 0.995822 0.847205
729 2 0.278677 0.227094 0.860252
730 4 0.270095 0.260624 0.870376
475 4 0.281404 0.261557 0.906755
162 2 0.334498 0.187362 0.809305
1423 4 0.427234 0.19253 0.930234
1082 4 0.438867 0.175743 0.904025
1069 4 0.0377558 0.310746 0.884966
1068 2 0.0652964 0.333642 0.880758
474 2 0.257177 0.264922 0.933252
1070 4 0.0928366 0.356538 0.87655
937 4 0.111558 0.385963 0.8815
936 2 0.127795 0.411931 0.862464
1091 4 0.479908 0.415955 0.841506
1090 4 0.43981 0.367746 0.877139
1089 2 0.459859 0.391851 0.859322
938 4 0.144032 0.4379 0.843428
172 4 0.1672 0.456896 0.863225
171 2 0.194062 0.458108 0.887254
173 4 0.220923 0.45932 0.911284
153 2 0.442828 0.511159 0.86423
154 4 0.43186 0.478167 0.873806
286 4 0.194832 0.578587 0.833041
98 4 0.494684 0.477768 0.876108
1010 4 0.162188 0.629666 0.851321
372 2 0.425512 0.590335 0.879934
373 4 0.396118 0.596837 0.860082
779 4 0.40677 0.781673 0.824236
1444 4 0.431871 0.674236 0.928351
85 4 0.475106 0.798248 0.919032
1443 2 0.445663 0.704069 0.91351
1445 4 0.459454 0.733902 0.89867
1186 4 0.0361099 0.821816 0.885709
778 4 0.422059 0.839726 0.864208
777 2 0.414415 0.8107 0.844222
1226 4 0.418326 0.411074 0.984112
1185 2 0.0279828 0.854435 0.898764
1187 4 0.0198563 0.887052 0.911819
382 4 0.175186 0.925494 0.864448
381 2 0.209136 0.93357 0.873536
7 3 0.00791951 0.960974 0.826171
383 4 0.243086 0.941645 0.882623
1019 4 0.383668 0.978294 0.84217
1017 2 0.402397 0.00267458 0.823322
146 4 0.359159 0.96394 0.859422
530 4 0.203631 0.0250314 0.970676
528 2 0.179598 0.0456781 0.953454
1099 4 0.064396 0.769199 0.583954
337 4 0.353054 0.0289163 0.905756
1331 4 0.476337 0.0452088 0.546437
793 4 0.0067684 0.0204257 0.776779
335 4 0.0812769 0.161902 0.931366
333 2 0.107516 0.185959 0.937124
334 4 0.133754 0.210017 0.942882
1422 2 0.457984 0.21042 0.936139
571 4 0.346778 0.9148 0.993823
476 4 0.232949 0.268286 0.95975
1078 4 0.454738 0.535125 0.652887
690 2 0.448529 0.238782 0.505564
544 4 0.298019 0.346936 0.986663
543 2 0.315536 0.378219 0.982792
650 4 0.418644 0.482972 0.907424
648 2 0.4072 0.47199 0.93981
649 4 0.395755 0.461008 0.972195
708 2 0.48715 0.510275 0.995636
710 4 0.486435 0.505137 0.959951
1002 2 0.0851775 0.582089 0.994364
1053 2 0.30844 0.940589 0.96696
145 4 0.356813 0.938015 0.926683
1004 4 0.113204 0.568134 0.97647
1060 4 0.324902 0.987409 0.83573
689 4 0.441849 0.594335 0.930638
941 4 0.00166179 0.628668 0.966402
454 4 0.137346 0.682 0.994933
508 4 0.224606 0.601816 0.981379
1085 4 0.197392 0.610058 0.962233
1083 2 0.184047 0.642179 0.971747
1084 4 0.1707 0.674301 0.98126
989 4 0.49682 0.941653 0.993767
687 2 0.422386 0.585796 0.959771
688 4 0.402923 0.577256 0.988904
374 4 0.454907 0.583831 0.899785
455 4 0.0817769 0.644818 0.967892
453 2 0.109561 0.663409 0.981411
1510 4 0.325406 0.699479 0.977588
1509 2 0.351403 0.699339 0.952597
1511 4 0.377399 0.699197 0.927604
99 2 0.451785 0.81624 0.975854
370 4 0.409983 0.242891 0.987058
545 4 0.333053 0.409501 0.978921
741 2 0.158268 0.777298 0.979074
77 4 0.493519 0.398376 0.643205
1369 4 0.00561417 0.429683 0.661042
47 3 0.23085 0.0500533 0.505566
49 3 0.209617 0.000281619 0.502334
1345 4 0.47996 0.3923 0.508034
1250 4 0.114216 0.533957 0.50374
1459 4 0.523583 0.0625425 0.0637698
1458 2 0.533656 0.0504663 0.0313189
926 4 0.614307 0.0434469 0.0244253
1117 4 0.736627 0.0400725 0.0202221
1116 2 0.703636 0.0331341 0.0330251
460 4 0.763847 0.0175615 0.0163579
459 2 0.791233 0.998784 0.00229261
231 2 0.996278 0.974545 0.0877283
839 4 0.742214 0.280417 0.0240329
836 4 0.639143 0.139741 0.0143075
924 2 0.616023 0.0784549 0.0159429
629 4 0.807428 0.128674 0.0755441
627 2 0.821844 0.10984 0.102708
628 4 0.836262 0.0910068 0.129871
952 4 0.918896 0.120094 0.122247
601 4 0.57941 0.167521 0.0743229
600 2 0.569255 0.201706 0.0689714
834 2 0.617273 0.16531 0.00133414
308 4 0.785477 0.182038 0.0262427
306 2 0.764827 0.156202 0.0118717
1342 4 0.807167 0.211035 0.0406372
596 4 0.957209 0.164801 0.0366726
594 2 0.967721 0.198788 0.0425703
595 4 0.978232 0.232775 0.0484681
525 2 0.551841 0.338639 0.0758843
526 4 0.517337 0.337398 0.0862951
492 2 0.859882 0.201591 0.0292228
602 4 0.559099 0.235891 0.0636203
745 4 0.581407 0.360945 0.0352364
284 4 0.810872 0.290277 0.999743
1305 2 0.615918 0.988765 0.476422
527 4 0.586344 0.33988 0.0654732
523 4 0.616149 0.40904 0.100484
478 4 0.661297 0.348199 0.0315203
479 4 0.715043 0.300134 0.0299138
477 2 0.68817 0.324167 0.0307171
494 4 0.860765 0.167109 0.0187054
522 2 0.597788 0.437739 0.112302
1268 4 0.731045 0.488922 0.0868424
1505 4 0.838996 0.46499 0.0372735
1503 2 0.852452 0.485269 0.0106629
725 4 0.501666 0.308386 0.100463
617 4 0.823145 0.927177 0.451682
378 2 0.545621 0.637765 0.030772
380 4 0.575026 0.651564 0.0151054
1123 4 0.725085 0.383964 0.483991
149 4 0.983915 0.643523 0.0635498
147 2 6.26454e-05 0.638689 0.0316703
452 4 0.977053 0.653519 0.0962996
635 4 0.610363 0.743703 0.0117972
1337 4 0.919981 0.708252 0.118891
698 4 0.647168 0.746379 0.0175629
696 2 0.666748 0.771584 0.0343487
1295 4 0.659962 0.875596 0.116388
697 4 0.686327 0.796789 0.051134
988 4 0.558337 0.934199 0.0306711
987 2 0.527579 0.937925 0.0122193
1293 2 0.687594 0.86009 0.0991695
1294 4 0.715226 0.844584 0.0819518
495 2 0.731336 0.870608 0.0195119
1136 4 0.902971 0.905987 0.00869319
497 4 0.741951 0.847913 0.0454483
1118 4 0.670646 0.0261961 0.0458282
1456 4 0.736197 0.416022 0.473111
1134 2 0.93209 0.886601 0.999937
765 2 0.673915 0.065812 0.0997289
766 4 0.698406 0.0412861 0.109682
1520 4 0.698005 0.00839511 0.125888
862 4 0.653693 0.125637 0.0789725
767 4 0.649424 0.0903384 0.0897751
861 2 0.655159 0.149922 0.10559
953 4 0.891262 0.186323 0.115052
951 2 0.905079 0.153209 0.118649
1339 4 0.665811 0.232207 0.171358
1338 2 0.684803 0.215025 0.145971
863 4 0.656624 0.174208 0.132208
1340 4 0.703796 0.197842 0.120584
35 3 0.73332 0.214686 0.129749
31 1 0.761039 0.223616 0.144939
32 3 0.782731 0.198544 0.143725
1343 4 0.793427 0.217792 0.111116
1341 2 0.800297 0.214414 0.075876
610 4 0.692808 0.277487 0.102599
609 2 0.665347 0.300859 0.102977
34 3 0.774384 0.250218 0.129637
611 4 0.637887 0.32423 0.103353
878 4 0.844254 0.294179 0.128954
906 2 0.858574 0.338199 0.0979402
907 4 0.828808 0.325019 0.113454
809 4 0.624589 0.345825 0.12947
807 2 0.600675 0.34847 0.156332
808 4 0.576762 0.351114 0.183194
908 4 0.888341 0.351379 0.0824269
1218 2 0.952831 0.372007 0.0939201
1220 4 0.919744 0.363567 0.105516
524 4 0.579426 0.466438 0.12412
1266 2 0.76168 0.492523 0.105524
1267 4 0.792314 0.496124 0.124205
1385 4 0.79157 0.491759 0.158898
1383 2 0.823104 0.477631 0.169215
1384 4 0.854637 0.463503 0.179534
567 2 0.912334 0.502769 0.176501
568 4 0.943569 0.517748 0.166479
999 2 0.888873 0.593638 0.123086
1001 4 0.916042 0.569965 0.12173
483 2 0.625007 0.642586 0.0607234
484 4 0.598492 0.666902 0.05824
485 4 0.651521 0.618271 0.0632059
740 4 0.744706 0.680921 0.107489
739 4 0.682598 0.69898 0.075581
738 2 0.713652 0.68995 0.0915347
1000 4 0.861704 0.617311 0.124443
1403 4 0.862188 0.64539 0.148794
450 2 0.957581 0.62535 0.107605
451 4 0.938109 0.597182 0.11891
1401 2 0.857181 0.671879 0.172746
1335 2 0.902598 0.736188 0.104133
68 4 0.733432 0.826432 0.118078
391 4 0.757956 0.734009 0.153217
67 4 0.764525 0.764945 0.139393
66 2 0.748979 0.795688 0.128735
1336 4 0.885215 0.764125 0.0893757
1152 2 0.76961 0.918201 0.155241
1153 4 0.766803 0.938748 0.184742
1300 4 0.909361 0.872121 0.151845
542 4 0.945566 0.870764 0.150682
701 4 0.572326 0.970153 0.16265
1518 2 0.669223 0.999785 0.145834
1519 4 0.640441 0.991174 0.165781
1379 4 0.968427 0.972096 0.149462
700 4 0.577101 0.0143991 0.219405
1102 4 0.550562 0.0202195 0.238582
874 4 0.544392 0.0296689 0.273064
1101 2 0.554334 0.0538759 0.226195
1121 4 0.888914 0.00881832 0.210603
1119 2 0.893149 0.0415168 0.225208
1103 4 0.558106 0.0875324 0.213808
249 2 0.79275 0.091344 0.180037
251 4 0.823558 0.109795 0.176719
250 4 0.761945 0.0728943 0.183355
418 4 0.867357 0.19341 0.201046
493 4 0.858998 0.236073 0.0397401
463 4 0.603558 0.241671 0.196192
1442 4 0.608512 0.224888 0.228162
33 3 0.754671 0.23087 0.176982
871 4 0.744686 0.269122 0.288297
897 2 0.88772 0.25709 0.261185
419 4 0.915104 0.162955 0.245698
417 2 0.891232 0.178183 0.223373
462 2 0.618112 0.271385 0.210536
464 4 0.632666 0.301097 0.22488
425 4 0.649214 0.331353 0.212118
982 4 0.83544 0.29644 0.217652
981 2 0.818634 0.328189 0.220818
877 4 0.863812 0.283049 0.197476
899 4 0.873425 0.269831 0.230628
876 2 0.854032 0.288614 0.163214
423 2 0.679823 0.346588 0.200654
424 4 0.710432 0.361823 0.18919
1319 4 0.790481 0.383097 0.202291
1317 2 0.81688 0.405631 0.192509
983 4 0.801828 0.359937 0.223983
1508 4 0.917915 0.390756 0.257859
1318 4 0.843279 0.428166 0.182726
55 4 0.783285 0.439318 0.271048
569 4 0.8811 0.48779 0.186524