ITEM: TIMESTEP
1010000
ITEM: NUMBER OF ATOMS
1520
ITEM: BOX BOUNDS pp pp pp
-6.9326749999999997e+00 6.9326749999999997e+00
-6.9326749999999997e+00 6.9326749999999997e+00
-6.9326749999999997e+00 6.9326749999999997e+00
ITEM: ATOMS id type xs ys zs
1298 4 0.148794 0.0975856 0.0103756
1454 4 0.203287 0.0542821 0.0539076
1319 4 0.145422 0.131423 0.031208
1296 2 0.117772 0.113752 0.00161812
1452 2 0.179326 0.0425034 0.02967
1317 2 0.164029 0.121166 0.060346
684 2 0.440938 0.116077 0.992959
685 4 0.405641 0.120066 0.986746
412 4 0.395229 0.112337 0.11387
138 2 0.0685101 0.225905 0.998204
139 4 0.0956886 0.248107 0.00649834
1214 4 0.4184 0.217007 0.0809675
823 4 0.0220563 0.293924 0.0524581
392 4 0.22823 0.30329 0.02388
984 2 0.393886 0.270872 0.0510372
985 4 0.398264 0.281174 0.085317
986 4 0.389509 0.26057 0.0167575
1489 4 0.0394606 0.751638 0.446474
219 2 0.46522 0.430579 0.079612
430 4 0.0476474 0.468482 0.017846
220 4 0.434957 0.444598 0.0933238
1149 2 0.380295 0.47785 0.0907168
1150 4 0.351873 0.494194 0.105733
1151 4 0.408717 0.461507 0.0757004
429 2 0.0534352 0.504076 0.018203
431 4 0.0592229 0.539667 0.0185603
566 4 0.0550802 0.571755 0.0393607
564 2 0.0412199 0.601633 0.0246773
565 4 0.0273589 0.631511 0.0099941
991 4 0.0154098 0.0981154 0.422298
1257 2 0.0593736 0.683644 0.00363267
161 4 0.0419994 0.740687 0.0338396
1258 4 0.0677845 0.717566 0.0125649
680 4 0.0762685 0.726933 0.0518194
678 2 0.0569316 0.722341 0.0819271
826 4 0.156023 0.678138 0.0017205
825 2 0.13101 0.701547 0.0129794
827 4 0.105985 0.724965 0.0242419
1231 4 0.0544159 0.865331 0.0211588
667 4 0.0784331 0.755417 0.0229245
666 2 0.0665493 0.78912 0.0180339
668 4 0.0546538 0.822813 0.0131598
116 4 0.106996 0.75472 0.0518969
830 4 0.117194 0.762359 0.0127958
114 2 0.118845 0.773887 0.0800644
607 4 0.288479 0.767396 0.00589705
606 2 0.280726 0.782194 0.0378549
1230 2 0.0801986 0.889637 0.0278632
409 4 0.0216733 0.847659 0.0242242
1232 4 0.105981 0.913942 0.0345669
1041 2 0.480405 0.912303 0.0900991
844 4 0.0773099 0.98734 0.00654252
671 4 0.471121 0.995155 0.00703143
845 4 0.122757 0.946869 0.0452509
843 2 0.100033 0.967104 0.025897
603 2 0.202557 0.965976 0.0261186
605 4 0.217682 0.960034 0.0583109
323 4 0.261478 0.955243 0.106277
669 2 0.477895 0.961472 0.0179863
670 4 0.484667 0.927789 0.0289409
1043 4 0.467357 0.920298 0.0574462
394 4 0.218984 0.0740753 0.124309
393 2 0.221203 0.0509904 0.0966934
395 4 0.223422 0.0279063 0.0690781
733 4 0.299474 0.0388538 0.10616
732 2 0.295309 0.066578 0.128842
322 4 0.31165 0.00705196 0.10682
314 4 0.32218 0.978261 0.156478
1203 2 0.367959 0.00697335 0.0914704
1205 4 0.343435 0.982181 0.100654
1204 4 0.392481 0.0317667 0.0822867
413 4 0.392101 0.0647081 0.0598023
1431 2 0.020046 0.150638 0.123434
1432 4 0.0540642 0.154327 0.134816
113 4 0.444554 0.960516 0.462739
1318 4 0.182635 0.110909 0.0894838
87 2 0.16166 0.137904 0.166132
89 4 0.14402 0.11286 0.185159
88 4 0.179301 0.162949 0.147106
790 4 0.216236 0.167172 0.150908
789 2 0.21339 0.177711 0.116539
734 4 0.291144 0.0943015 0.151523
411 2 0.393665 0.0885229 0.086836
107 4 0.0776893 0.151562 0.11048
105 2 0.0951763 0.1831 0.110536
106 4 0.112663 0.214637 0.110592
791 4 0.210543 0.188249 0.0821688
641 4 0.376415 0.217638 0.140482
1213 4 0.474378 0.186955 0.0468358
1212 2 0.446389 0.201981 0.0639014
737 4 0.4575 0.217825 0.24914
1120 4 0.473384 0.98256 0.471941
824 4 0.066419 0.321732 0.10206
822 2 0.0442376 0.307828 0.0772591
1128 2 0.120536 0.280839 0.162625
1129 4 0.120566 0.31329 0.146896
691 4 0.159097 0.319885 0.141786
751 4 0.209423 0.291683 0.126676
750 2 0.238996 0.305545 0.141963
142 4 0.308516 0.286434 0.148844
143 4 0.350696 0.274869 0.0914964
141 2 0.329606 0.280651 0.12017
690 2 0.164586 0.351466 0.125264
692 4 0.170073 0.383047 0.108742
221 4 0.495482 0.416558 0.0659003
868 4 0.409177 0.363438 0.21996
867 2 0.424332 0.347266 0.191513
464 4 0.177232 0.416522 0.120898
462 2 0.18868 0.424513 0.0876482
463 4 0.200126 0.432504 0.0543988
454 4 0.378016 0.490116 0.179969
453 2 0.365331 0.456951 0.186259
1160 4 0.210788 0.529409 0.137228
1158 2 0.239523 0.551197 0.137049
1159 4 0.268258 0.572984 0.136871
649 4 0.450947 0.548839 0.174528
50 3 0.00676068 0.670552 0.156356
935 4 0.293132 0.594117 0.152762
933 2 0.32197 0.615596 0.150043
46 1 0.0240735 0.697893 0.150735
47 3 0.00567764 0.719014 0.132955
48 3 0.0517857 0.690516 0.133487
679 4 0.0376039 0.717754 0.112024
1290 2 0.217009 0.701948 0.145342
1291 4 0.230098 0.735168 0.140294
111 2 0.463239 0.92981 0.46565
545 4 0.333021 0.976534 0.42354
115 4 0.130691 0.793048 0.108223
608 4 0.272973 0.796992 0.0698126
1008 2 0.133387 0.835243 0.138316
1009 4 0.147593 0.843248 0.17048
1010 4 0.119182 0.827237 0.106151
1495 4 0.444134 0.577521 0.471855
1042 4 0.493454 0.904308 0.122752
467 4 0.0501945 0.981442 0.147578
1142 4 0.168733 0.00888214 0.180087
466 4 0.121929 0.973985 0.147108
465 2 0.0860616 0.977714 0.147343
1140 2 0.17422 0.980325 0.158762
321 2 0.286564 0.981148 0.106549
1234 4 0.0250993 0.0169974 0.234204
1233 2 0.0559059 0.00163183 0.223468
1235 4 0.0867131 0.986267 0.212733
312 2 0.349141 0.986578 0.178934
313 4 0.376103 0.994895 0.201391
1132 4 0.493152 0.00401856 0.219973
296 4 0.0741649 0.119568 0.211121
343 4 0.195762 0.136762 0.212628
342 2 0.202593 0.163524 0.235813
344 4 0.209424 0.190286 0.258998
639 2 0.402281 0.232048 0.161065
736 4 0.463606 0.177303 0.18979
735 2 0.460553 0.197564 0.219465
1130 4 0.120505 0.248389 0.178354
172 4 0.139377 0.319467 0.21741
752 4 0.268568 0.319408 0.15725
640 4 0.428147 0.246459 0.181648
869 4 0.439488 0.331095 0.163067
811 4 0.0385272 0.410178 0.25215
171 2 0.129786 0.352862 0.207754
1336 4 0.146857 0.399289 0.221024
173 4 0.120195 0.386256 0.198098
455 4 0.352646 0.423787 0.19255
64 4 0.464958 0.364754 0.253875
63 2 0.482799 0.394649 0.244474
1052 4 0.150655 0.491414 0.236227
1335 2 0.160257 0.432753 0.220013
1337 4 0.173657 0.466217 0.219002
65 4 0.500639 0.424545 0.235072
1050 2 0.126765 0.51511 0.223261
1051 4 0.102875 0.538806 0.210294
1103 4 0.0772965 0.531779 0.18371
648 2 0.474858 0.536095 0.198325
650 4 0.498769 0.52335 0.222121
1101 2 0.0885079 0.565606 0.178183
1102 4 0.0997194 0.599431 0.172656
776 4 0.149001 0.605693 0.244369
775 4 0.168073 0.674354 0.233257
774 2 0.158537 0.640023 0.238814
597 2 0.231336 0.639235 0.195639
599 4 0.226905 0.624302 0.228162
1000 4 0.338783 0.674709 0.24406
934 4 0.350809 0.637076 0.147324
49 3 0.0322123 0.712423 0.179762
598 4 0.235767 0.654168 0.163115
1292 4 0.203919 0.668727 0.150389
806 4 0.393849 0.664679 0.30815
72 2 0.025993 0.767147 0.209142
73 4 0.0207427 0.786374 0.179089
74 4 0.0312436 0.747921 0.239195
1398 2 0.244398 0.797691 0.230942
1400 4 0.211609 0.783652 0.225633
1399 4 0.277187 0.811729 0.236252
112 4 0.481923 0.899104 0.468561
1344 2 0.156174 0.85353 0.238614
1346 4 0.144614 0.837199 0.208613
1345 4 0.167736 0.869862 0.268613
1365 2 0.219283 0.937494 0.255165
1367 4 0.21518 0.92923 0.220304
22 3 0.130971 0.922802 0.214181
24 3 0.156847 0.967205 0.196939
21 1 0.141798 0.95285 0.223158
25 3 0.11626 0.971115 0.232804
1325 4 0.231705 0.969176 0.207379
1141 4 0.179708 0.951766 0.137438
1323 2 0.266388 0.968809 0.197508
1324 4 0.30107 0.968442 0.187638
145 4 0.292701 0.0100158 0.251703
329 4 0.254392 0.0629453 0.310166
688 4 0.413202 0.0431442 0.32617
294 2 0.10123 0.136933 0.227441
295 4 0.128295 0.154298 0.243761
328 4 0.209798 0.109577 0.34239
327 2 0.232095 0.086261 0.326278
196 4 0.00498325 0.342554 0.246752
1244 4 0.166974 0.357071 0.345028
52 4 0.416167 0.332038 0.297218
810 2 0.0344753 0.413136 0.28786
1242 2 0.199499 0.372195 0.341315
1243 4 0.232024 0.38732 0.337602
490 4 0.213099 0.40835 0.312646
51 2 0.426457 0.339473 0.263466
1217 4 0.430209 0.383461 0.27814
53 4 0.436747 0.346908 0.229712
489 2 0.206687 0.443472 0.317723
491 4 0.200275 0.478593 0.3228
1216 4 0.395589 0.44663 0.281709
1215 2 0.412898 0.415046 0.279925
1360 4 0.227988 0.503518 0.325536
1339 4 0.343355 0.589261 0.335865
1252 4 0.328572 0.58744 0.371643
999 2 0.344771 0.667825 0.278949
932 4 0.165068 0.693731 0.261312
930 2 0.182289 0.724103 0.252291
459 2 0.320935 0.74657 0.32104
1001 4 0.350759 0.660942 0.313837
805 4 0.462744 0.661088 0.287113
804 2 0.428296 0.662884 0.297632
931 4 0.199509 0.754475 0.243271
460 4 0.285451 0.749722 0.315442
634 4 0.449055 0.842107 0.272178
633 2 0.475921 0.819051 0.265324
929 4 0.451917 0.321517 0.301018
635 4 0.502788 0.795995 0.258469
1512 2 0.151378 0.932288 0.314503
1513 4 0.170892 0.90208 0.317181
1468 4 0.202293 0.871425 0.26777
1366 4 0.223385 0.945759 0.290026
1467 2 0.217977 0.853671 0.294957
1469 4 0.233662 0.835916 0.322145
965 4 0.0992854 0.950846 0.315844
963 2 0.0679245 0.944569 0.332502
357 2 0.161256 0.906781 0.447894
1514 4 0.131866 0.962495 0.311826
23 3 0.163554 0.949428 0.248355
144 2 0.320515 0.994643 0.268745
146 4 0.34833 0.979268 0.285787
131 4 0.341477 0.946459 0.292726
129 2 0.361426 0.953332 0.32197
398 4 0.142615 0.110627 0.375841
785 4 0.287937 0.0642054 0.326334
783 2 0.313507 0.0549093 0.350002
488 4 0.349501 0.0419185 0.411803
689 4 0.465171 0.0850984 0.298953
687 2 0.439187 0.0641212 0.312562
968 4 0.104791 0.151444 0.419891
990 2 0.0442957 0.118992 0.427791
992 4 0.0731819 0.139869 0.433283
397 4 0.146638 0.0773455 0.311983
396 2 0.144627 0.0939861 0.343912
966 2 0.13211 0.169235 0.404478
850 4 0.491759 0.137017 0.384002
1330 4 0.490181 0.173192 0.374008
231 2 0.00911329 0.201016 0.382597
967 4 0.159429 0.187026 0.389065
211 4 0.328493 0.229685 0.358812
1199 4 0.401815 0.59639 0.0136395
1329 2 0.499083 0.203718 0.356997
818 4 0.429828 0.455685 0.00401451
1122 2 0.0332788 0.297745 0.40208
693 2 0.189427 0.284292 0.405151
694 4 0.193807 0.273001 0.371185
210 2 0.31867 0.249927 0.386993
958 4 0.132435 0.349663 0.392713
957 2 0.141019 0.384576 0.395519
959 4 0.149604 0.419487 0.398326
118 4 0.44801 0.436703 0.479828
441 2 0.134229 0.46431 0.419177
286 4 0.109743 0.50432 0.419009
443 4 0.106983 0.474921 0.440285
573 2 0.372984 0.475077 0.342554
575 4 0.345446 0.497389 0.335904
574 4 0.400523 0.452766 0.349205
359 4 0.139761 0.888333 0.47021
287 4 0.128133 0.572785 0.405728
285 2 0.118938 0.538554 0.412368
1361 4 0.224392 0.574612 0.337127
1359 2 0.22619 0.539065 0.331331
1253 4 0.261206 0.563957 0.361052
1251 2 0.294889 0.575699 0.366348
1338 2 0.370846 0.566379 0.340462
1502 4 0.3953 0.518564 0.379061
1340 4 0.398336 0.543496 0.345059
1474 4 0.00570252 0.592352 0.358814
1473 2 0.0417364 0.592988 0.360066
1475 4 0.0777697 0.593624 0.361317
1306 4 0.327616 0.632463 0.416494
1307 4 0.328438 0.656798 0.348606
1305 2 0.328027 0.64463 0.38255
461 4 0.35642 0.743417 0.326638
549 2 0.402573 0.750553 0.36006
550 4 0.396371 0.747864 0.324638
551 4 0.408774 0.753243 0.395481
716 4 0.417345 0.786253 0.410133
714 2 0.452699 0.789801 0.416292
964 4 0.0365626 0.938293 0.349159
358 4 0.182752 0.92523 0.425578
130 4 0.381374 0.960205 0.351215
544 4 0.391338 0.957616 0.385555
543 2 0.36218 0.967075 0.404548
1007 4 0.46892 0.999127 0.369943
1005 2 0.495923 0.99796 0.34607
715 4 0.488053 0.793348 0.422452
784 4 0.339076 0.0456139 0.373671
486 2 0.357999 0.0397438 0.446782
487 4 0.366497 0.0375689 0.481761
1119 2 0.466327 0.0144011 0.487328
1121 4 0.459271 0.0462428 0.502714
80 4 0.00689341 0.376355 0.388974
653 4 0.186464 0.0704198 0.472112
217 4 0.264035 0.111578 0.444845
218 4 0.319284 0.155449 0.459831
216 2 0.291659 0.133514 0.452338
849 2 0.501561 0.142518 0.418266
624 2 0.429069 0.122218 0.501256
625 4 0.393505 0.124473 0.495731
168 2 0.081239 0.226694 0.49527
170 4 0.0812652 0.246276 0.46499
497 4 0.240893 0.219072 0.454905
495 2 0.217319 0.200311 0.435089
496 4 0.193744 0.181551 0.415271
226 4 0.319815 0.191342 0.460081
225 2 0.293009 0.214587 0.466526
227 4 0.266204 0.237832 0.472971
109 4 0.0634823 0.120439 0.0184619
1124 4 0.0596402 0.318039 0.415994
450 2 0.0954172 0.306508 0.470603
1229 4 0.0124884 0.519311 0.466387
695 4 0.185048 0.295582 0.439118
212 4 0.308847 0.270168 0.415175
1034 4 0.277458 0.242547 0.506452
452 4 0.0828729 0.307338 0.436804
159 2 0.00707149 0.739823 0.0248802
442 4 0.161473 0.453699 0.398069
1501 4 0.400915 0.485153 0.442732
119 4 0.470548 0.420774 0.413196
117 2 0.459279 0.428739 0.446512
1494 2 0.424736 0.559318 0.496201
1500 2 0.398107 0.501859 0.410897
872 4 0.335888 0.666685 0.434571
870 2 0.312739 0.656811 0.460397
512 4 0.00976813 0.266003 0.0281024
122 4 0.495356 0.590577 0.417422
1397 4 0.184633 0.69273 0.473831
1488 2 0.0162123 0.739868 0.471403
232 4 0.0357915 0.177709 0.375852
1395 2 0.183966 0.722488 0.453473
1396 4 0.1833 0.752246 0.433116
773 4 0.238478 0.769073 0.489059
771 2 0.250213 0.782005 0.457508
772 4 0.261947 0.794937 0.425957
346 4 0.00399085 0.895733 0.436405
927 2 0.473895 0.296359 0.314597
812 4 0.0304239 0.416095 0.323569
1415 4 0.0272248 0.632687 0.48693
871 4 0.289589 0.646936 0.486223
1453 4 0.155363 0.0307241 0.00543219
388 4 0.494027 0.862383 0.472617
1063 4 0.14325 0.0452471 0.543504
591 2 0.37919 0.0603493 0.545698
592 4 0.386001 0.0518064 0.511331
593 4 0.372378 0.0688916 0.580064
1218 2 0.458467 0.0671659 0.548038
1219 4 0.452577 0.0333484 0.559084
651 2 0.200148 0.0836243 0.502752
652 4 0.213832 0.0968285 0.533392
1220 4 0.464357 0.100985 0.536992
626 4 0.464633 0.119961 0.506782
169 4 0.0812126 0.207111 0.525551
178 4 0.162217 0.25858 0.592852
1033 4 0.28246 0.29963 0.550248
137 4 0.407823 0.27527 0.537788
1070 4 0.27313 0.186456 0.558348
135 2 0.373164 0.265629 0.53529
1289 4 0.215328 0.295799 0.53852
1032 2 0.279958 0.271089 0.52835
136 4 0.338505 0.255989 0.532793
585 2 0.487194 0.219439 0.577225
587 4 0.465296 0.232172 0.551559
609 2 0.0383179 0.39481 0.602664
1288 4 0.161071 0.342852 0.545153
1287 2 0.188199 0.319326 0.541837
618 2 0.437178 0.399148 0.511838
620 4 0.420925 0.431323 0.512832
568 4 0.151273 0.431387 0.571649
567 2 0.154702 0.424606 0.536398
147 2 0.333988 0.421779 0.58765
148 4 0.351242 0.43333 0.558167
248 4 0.403757 0.438007 0.621575
246 2 0.414056 0.435755 0.587089
247 4 0.424354 0.433504 0.552603
15 3 0.0177023 0.396534 0.909297
972 2 0.48613 0.571443 0.618362
973 4 0.45622 0.559069 0.634259
1418 4 0.0491159 0.597677 0.595738
1490 4 0.992965 0.728098 0.49633
1414 4 0.0137062 0.690532 0.527828
1260 2 0.265351 0.828628 0.575702
1153 4 0.267273 0.853822 0.528075
1262 4 0.27717 0.8606 0.563932
1152 2 0.281293 0.885256 0.517316
793 4 0.0516001 0.033873 0.579803
792 2 0.0742803 0.024484 0.60622
794 4 0.0969601 0.0150948 0.632636
1064 4 0.17689 0.0371245 0.606781
1062 2 0.16007 0.0411858 0.575142
722 4 0.353747 0.0151597 0.59971
901 4 0.383957 0.0857267 0.609136
721 4 0.345189 0.989345 0.666508
720 2 0.349469 0.00225276 0.633108
848 4 0.0612459 0.123838 0.59874
900 2 0.377948 0.118615 0.622651
902 4 0.371938 0.151503 0.636167
656 4 0.476376 0.14685 0.652932
846 2 0.0358792 0.147328 0.608996
179 4 0.17369 0.196172 0.627133
177 2 0.167954 0.227376 0.609992
800 4 0.26999 0.245556 0.647595
1068 2 0.26903 0.203255 0.589992
1069 4 0.264929 0.220055 0.621638
583 4 0.436063 0.221626 0.685637
451 4 0.107962 0.305679 0.504401
582 2 0.428646 0.215325 0.650914
584 4 0.421227 0.209025 0.616191
799 4 0.285049 0.29873 0.601254
798 2 0.277519 0.272143 0.624425
562 4 0.469977 0.313656 0.585032
1210 4 0.287635 0.962358 0.964288
561 2 0.44642 0.326425 0.609166
611 4 0.0459564 0.359606 0.601015
1373 4 0.104841 0.383485 0.620368
1371 2 0.113513 0.414504 0.604148
149 4 0.316734 0.410228 0.617134
7 3 0.0132877 0.370275 0.679871
1372 4 0.122185 0.445522 0.58793
749 4 0.473493 0.437288 0.657874
839 4 0.272789 0.521587 0.663985
1465 4 0.428517 0.571032 0.614874
559 4 0.312322 0.331778 0.991465
1417 4 0.00744949 0.580317 0.65199
236 4 0.00948572 0.60168 0.681578
1416 2 0.0282831 0.588997 0.623863
1466 4 0.390194 0.629868 0.598407
1464 2 0.409356 0.60045 0.60664
42 3 0.335325 0.683245 0.698376
1394 4 0.273017 0.776878 0.612091
1392 2 0.283761 0.756197 0.639609
1393 4 0.294505 0.735515 0.667127
249 2 0.0480537 0.824902 0.605582
1261 4 0.253533 0.796655 0.587471
1313 4 0.48427 0.818601 0.569637
1311 2 0.452896 0.824726 0.586326
250 4 0.0682148 0.851098 0.591171
922 4 0.0481665 0.870816 0.613281
921 2 0.0648861 0.902638 0.610413
923 4 0.081606 0.93446 0.607546
316 4 0.108736 0.931565 0.633764
1017 2 0.40972 0.863793 0.651593
1019 4 0.415726 0.829303 0.642943
1312 4 0.42152 0.83085 0.603016
1020 2 0.0111054 0.970796 0.616025
1021 4 0.000592274 0.997603 0.637734
1022 4 0.0216188 0.94399 0.594316
315 2 0.107573 0.965305 0.646438
317 4 0.10641 0.999045 0.659114
1320 2 0.189992 0.991835 0.741006
1322 4 0.202349 0.962588 0.72391
269 4 0.495258 0.991586 0.717905
1279 4 0.153906 0.102809 0.770964
1278 2 0.164733 0.127923 0.747459
421 4 0.466692 0.128112 0.754471
1280 4 0.175561 0.153036 0.723955
1195 4 0.170041 0.188875 0.724263
1194 2 0.178339 0.199352 0.690769
1196 4 0.186637 0.209828 0.657276
563 4 0.422864 0.339196 0.6333
1357 4 0.380512 0.286173 0.686761
1356 2 0.367424 0.29404 0.71943
604 4 0.187433 0.971917 0.993926
6 1 0.0117931 0.390938 0.705784
1226 4 0.462724 0.406612 0.675146
1225 4 0.422577 0.346982 0.669295
1224 2 0.44265 0.376797 0.67222
989 4 0.490802 0.0365483 0.939123
10 3 0.0399877 0.389317 0.722554
1084 4 0.0260766 0.428096 0.71994
1083 2 0.0406814 0.461023 0.718227
838 4 0.207451 0.504357 0.689196
298 4 0.305079 0.41699 0.749542
747 2 0.481878 0.449322 0.690817
184 4 0.492162 0.452158 0.75722
748 4 0.490264 0.461357 0.72376
1085 4 0.0552875 0.493948 0.716513
1350 2 0.128812 0.552788 0.70819
1351 4 0.158804 0.534111 0.715408
837 2 0.24012 0.512971 0.676591
1347 2 0.390996 0.536321 0.77002
614 4 0.347911 0.596065 0.767747
1348 4 0.423242 0.522839 0.778898
842 4 0.453862 0.537742 0.707188
840 2 0.487264 0.525501 0.701277
616 4 0.0487786 0.645016 0.752567
1352 4 0.0988206 0.571465 0.700972
969 2 0.165478 0.63275 0.691718
970 4 0.154265 0.6042 0.710681
45 3 0.343375 0.635096 0.675707
43 3 0.352078 0.680304 0.646908
41 1 0.354162 0.666087 0.677131
612 2 0.359586 0.6161 0.740129
613 4 0.37126 0.636136 0.712511
971 4 0.176691 0.661301 0.672755
1135 4 0.190398 0.697351 0.660865
1134 2 0.21491 0.70944 0.68439
1136 4 0.239422 0.721528 0.707915
1334 4 0.312443 0.709286 0.686276
1333 4 0.263099 0.73157 0.733921
1332 2 0.287773 0.720425 0.7101
44 3 0.385851 0.666664 0.68787
1057 4 0.365393 0.672915 0.722968
1056 2 0.355426 0.694675 0.749944
664 4 0.420817 0.763565 0.688216
251 4 0.0278914 0.798704 0.619994
663 2 0.450807 0.748732 0.674763
1250 4 0.0834628 0.89064 0.68007
1248 2 0.101237 0.87173 0.705108
1249 4 0.119011 0.852821 0.730146
1018 4 0.403714 0.898283 0.660242
1040 4 0.397372 0.907869 0.697296
1038 2 0.407991 0.926236 0.726457
779 4 0.485748 0.924294 0.673248
1420 4 0.211955 0.938105 0.746831
1419 2 0.221482 0.919531 0.717425
1421 4 0.23101 0.900958 0.68802
777 2 0.495591 0.954125 0.655538
987 2 0.475299 0.0644967 0.955825
1039 4 0.418611 0.944604 0.755616
1321 4 0.177635 0.0210823 0.758104
527 4 0.199442 0.0168951 0.788629
525 2 0.169024 0.0218161 0.807362
852 2 0.065784 0.00254077 0.828642
422 4 0.443216 0.0615684 0.769386
420 2 0.454954 0.09484 0.761929
265 4 0.0300586 0.141737 0.755943
815 4 0.0621586 0.139076 0.776938
264 2 0.0238967 0.176793 0.761732
814 4 0.121007 0.0982266 0.785295
813 2 0.0915826 0.118652 0.781117
760 4 0.222275 0.123354 0.803418
759 2 0.249994 0.145154 0.79588
761 4 0.277712 0.166955 0.788343
1097 4 0.456392 0.11409 0.822865
288 2 0.0733069 0.245278 0.791332
289 4 0.0412533 0.22914 0.794898
263 4 0.0140462 0.222286 0.821768
266 4 0.0177366 0.211851 0.767522
166 4 0.488359 0.885104 0.931748
889 4 0.305152 0.189435 0.800074
1246 4 0.299111 0.184019 0.836413
888 2 0.325576 0.218563 0.794172
890 4 0.346 0.247691 0.78827
101 4 0.340957 0.26696 0.819591
1460 4 0.437538 0.18782 0.77585
1458 2 0.472284 0.196727 0.772132
229 4 0.000290059 0.766648 0.929785
665 4 0.480798 0.7339 0.66131
290 4 0.105359 0.261415 0.787766
797 4 0.117867 0.283235 0.763229
795 2 0.101944 0.314142 0.772802
100 4 0.384389 0.303632 0.863981
99 2 0.362673 0.285297 0.841786
1358 4 0.354336 0.301907 0.752099
1508 4 0.0893172 0.368106 0.810967
796 4 0.08602 0.345048 0.782375
1118 4 0.128525 0.465835 0.850127
1116 2 0.0941815 0.459707 0.840997
880 4 0.148542 0.442355 0.83881
297 2 0.290612 0.438205 0.774861
299 4 0.276145 0.459421 0.80018
183 2 0.463014 0.47305 0.761001
274 4 0.167537 0.505012 0.737448
570 2 0.0975886 0.515124 0.788642
572 4 0.11122 0.489398 0.767364
273 2 0.197157 0.525428 0.739943
1493 4 0.248657 0.543633 0.773376
275 4 0.226779 0.545844 0.742438
1491 2 0.272599 0.532243 0.79782
1492 4 0.296541 0.520853 0.822263
1349 4 0.35875 0.549803 0.761142
185 4 0.433865 0.493941 0.764781
995 4 0.458548 0.574247 0.707919
617 4 0.997853 0.681138 0.788671
615 2 0.0233156 0.663077 0.77062
242 4 0.0204302 0.59577 0.864924
571 4 0.0839567 0.54085 0.80992
1025 4 0.228307 0.630774 0.771428
1023 2 0.250926 0.648292 0.793381
1024 4 0.273544 0.665811 0.815335
277 4 0.294014 0.650837 0.84059
993 2 0.469551 0.602751 0.727072
994 4 0.480554 0.631257 0.746225
276 2 0.316809 0.673273 0.823934
1058 4 0.345465 0.716432 0.776922
278 4 0.339605 0.69571 0.807275
1086 2 0.128478 0.81408 0.7716
1087 4 0.119655 0.822972 0.805415
1088 4 0.137301 0.805188 0.737785
1163 4 0.0298873 0.950865 0.774824
1161 2 0.0110435 0.942431 0.745257
11 1 0.0158725 0.371553 0.888051
853 4 0.0562401 0.0344601 0.842443
424 4 0.415186 0.921355 0.847361
1362 2 0.464689 0.949595 0.820383
983 4 0.497229 0.321522 0.983746
1363 4 0.430956 0.936859 0.819865
854 4 0.0753258 0.970621 0.81484
526 4 0.138604 0.0267366 0.826094
1382 4 0.239872 0.0800217 0.889857
1413 2 0.020464 0.66161 0.507379
1380 2 0.270374 0.098273 0.883786
1381 4 0.300877 0.116525 0.877715
1245 2 0.313216 0.151681 0.843878
1247 4 0.327321 0.119343 0.851344
1478 4 0.392973 0.122973 0.888293
1095 2 0.423239 0.115083 0.837018
1096 4 0.390086 0.116077 0.851172
484 4 0.023958 0.0375848 0.726259
988 4 0.459797 0.0924467 0.972528
943 4 0.0772074 0.30455 0.910096
1476 2 0.381169 0.156618 0.893678
352 4 0.05676 0.277225 0.919522
351 2 0.0242751 0.292868 0.92018
941 4 0.142447 0.350207 0.899158
755 4 0.276325 0.274039 0.907389
1507 4 0.0308518 0.399782 0.838898
610 4 0.0306795 0.430016 0.604314
1506 2 0.060085 0.383944 0.824932
13 3 0.0464308 0.359169 0.882329
939 2 0.136918 0.369174 0.86899
940 4 0.131389 0.38814 0.838822
918 2 0.330883 0.395272 0.900706
1238 4 0.39435 0.361124 0.946434
920 4 0.350448 0.385228 0.872128
1117 4 0.0598375 0.453579 0.831867
881 4 0.198341 0.49439 0.842552
879 2 0.173441 0.468373 0.840681
241 4 0.0450853 0.569374 0.802498
240 2 0.0327576 0.582572 0.83371
1301 4 0.209216 0.634534 0.873772
1241 4 0.176014 0.647172 0.945181
1300 4 0.252685 0.589324 0.909384
1299 2 0.230951 0.611929 0.891578
482 4 0.470576 0.676737 0.898736
208 4 0.407608 0.707598 0.863451
207 2 0.391906 0.70636 0.831011
209 4 0.376203 0.705122 0.798571
1209 2 0.251879 0.96491 0.968207
480 2 0.435182 0.682934 0.901773
481 4 0.399787 0.68913 0.90481
364 4 0.0284815 0.8517 0.894118
363 2 0.0625971 0.842499 0.886915
257 4 0.12595 0.81439 0.867124
255 2 0.156885 0.811876 0.885486
365 4 0.096713 0.833297 0.879713
256 4 0.187819 0.809364 0.903848
444 2 0.439696 0.828642 0.913146
445 4 0.445959 0.812329 0.944691
1165 4 0.123774 0.876437 0.905486
423 2 0.391048 0.89554 0.854529
425 4 0.366911 0.869725 0.861697
621 2 0.215185 0.963292 0.894554
622 4 0.183918 0.955569 0.878334
1075 4 0.504117 0.975195 0.855744
579 2 0.494173 0.928098 0.889809
580 4 0.485476 0.960997 0.877875
1211 4 0.216122 0.967462 0.972126
108 2 0.0464618 0.145562 0.99898
8 3 0.00697886 0.422082 0.694523
1297 4 0.0867508 0.12992 0.992862
686 4 0.476235 0.112085 0.99917
1369 4 0.0191649 0.161323 0.94245
110 4 0.0294408 0.170685 0.979498
140 4 0.0413311 0.203704 0.98991
1477 4 0.369365 0.190266 0.899064
1354 4 0.393671 0.19937 0.925824
1355 4 0.43456 0.205406 0.984928
1353 2 0.414116 0.202389 0.955377
944 4 0.149298 0.305397 0.912062
942 2 0.113253 0.304974 0.911079
753 2 0.292508 0.29513 0.931754
754 4 0.308692 0.316221 0.95612
1015 4 0.0192067 0.370618 0.965864
1014 2 0.0517884 0.363775 0.979719
1016 4 0.084371 0.356933 0.993575
390 2 0.237415 0.318603 0.99255
391 4 0.246599 0.333915 0.961219
558 2 0.318606 0.365002 0.978931
919 4 0.311318 0.405314 0.929286
560 4 0.324888 0.398226 0.966396
1236 2 0.412985 0.388121 0.931457
1237 4 0.43162 0.415119 0.91648
817 4 0.460503 0.432606 0.942956
1517 4 0.0794511 0.442437 0.914386
1515 2 0.0947153 0.470369 0.931334
318 2 0.195814 0.509602 0.935344
320 4 0.176911 0.491119 0.959868
847 4 0.0105122 0.170817 0.619251
816 2 0.445166 0.444145 0.973486
623 4 0.246453 0.971015 0.910774
1516 4 0.10998 0.4983 0.948283
319 4 0.214717 0.528085 0.91082
1003 4 0.178848 0.556364 0.976642
619 4 0.453431 0.366972 0.510842
1239 2 0.16893 0.664911 0.914594
1004 4 0.198674 0.614265 0.938482
1002 2 0.188761 0.585314 0.957562
1198 4 0.349503 0.592194 0.964167
1197 2 0.375659 0.594291 0.988903
200 4 0.33887 0.627263 0.944246
272 4 0.0930671 0.73943 0.988478
271 4 0.0726882 0.741371 0.919323
270 2 0.0828754 0.740403 0.953902
1240 4 0.161846 0.68265 0.884007
199 4 0.365189 0.681316 0.904406
198 2 0.35203 0.654289 0.924326
835 4 0.465036 0.721577 0.977523
834 2 0.453572 0.749054 0.957177
829 4 0.15981 0.811998 0.982445
828 2 0.138498 0.78718 0.99762
627 2 0.225511 0.791055 0.983638
629 4 0.191257 0.796557 0.9738
628 4 0.259765 0.785553 0.993477
446 4 0.433433 0.844954 0.881601
836 4 0.442107 0.776531 0.936831
1166 4 0.147692 0.914082 0.962166
1164 2 0.135733 0.895259 0.933826
1308 2 0.136701 0.973002 0.946671
1309 4 0.116553 0.99267 0.92414
1310 4 0.156849 0.953332 0.969202
1259 4 0.0509677 0.64973 0.994711
1154 4 0.295313 0.91669 0.506556
254 4 0.487621 0.067969 0.509468
569 4 0.158132 0.417826 0.501147
1496 4 0.405337 0.541115 0.520548
1137 2 0.663984 0.00922663 0.0444385
1138 4 0.647249 0.992125 0.0174596
1188 2 0.81293 0.0820947 0.011666
1072 4 0.508626 0.926651 0.15044
1503 2 0.886157 0.0533167 0.0595614
1190 4 0.835229 0.0585546 0.0274464
1505 4 0.858342 0.0757137 0.0545475
1504 4 0.913972 0.0309197 0.0645751
520 4 0.930895 0.00665295 0.0450251
601 4 0.626863 0.114775 0.0490797
133 4 0.691629 0.0974229 0.100128
308 4 0.799373 0.157608 0.0949529
719 4 0.950728 0.153037 0.0538538
469 4 0.573686 0.253643 0.0338213
307 4 0.807875 0.225467 0.0720469
306 2 0.803624 0.191538 0.0834999
474 2 0.854744 0.252485 0.00420694
998 4 0.99346 0.361979 0.497053
718 4 0.966048 0.21389 0.0183006
233 4 0.982435 0.224323 0.389341
717 2 0.958388 0.183463 0.0360773
202 4 0.582878 0.754376 0.46017
456 2 0.817628 0.303966 0.0734962
458 4 0.790427 0.312283 0.0513291
510 2 0.981048 0.254352 0.00966754
280 4 0.754756 0.75262 0.00299892
1422 2 0.559356 0.421337 0.0503342
1423 4 0.530285 0.416088 0.0710181
389 4 0.5601 0.883629 0.492229
1303 4 0.723509 0.381845 0.0472577
1302 2 0.755805 0.36593 0.0452264
1006 4 0.522927 0.996793 0.322198
706 4 0.705036 0.400232 0.019422
1304 4 0.788101 0.350016 0.0431953
20 3 0.793206 0.449748 0.0330311
1047 2 0.550302 0.52563 0.0257606
1424 4 0.588426 0.426586 0.0296514
385 4 0.647602 0.465457 0.102836
1228 4 0.960732 0.47604 0.440883
16 1 0.821617 0.438678 0.0208192
17 3 0.824676 0.406392 0.027813
18 3 0.847208 0.455217 0.0346561
1048 4 0.533489 0.557433 0.0232442
1275 2 0.622114 0.495464 0.0614007
1276 4 0.598848 0.482039 0.0373422
1277 4 0.645379 0.508891 0.0854598
938 4 0.531635 0.774436 0.265973
436 4 0.682107 0.576107 0.0644282
435 2 0.706156 0.575494 0.0912924
552 2 0.650703 0.737759 0.0575109
553 4 0.674924 0.711184 0.0547713
27 3 0.726102 0.67186 0.053689
29 3 0.700754 0.712675 0.0787871
349 4 0.778078 0.714286 0.0953614
892 4 0.838484 0.653042 0.0153115
476 4 0.83204 0.23176 0.0230611
160 4 0.972151 0.738958 0.0159232
683 4 0.57179 0.739241 0.0583037
1438 4 0.553777 0.842332 0.0740316
907 4 0.514158 0.828041 0.126037
681 2 0.543496 0.7357 0.0803798
554 4 0.626482 0.764334 0.0602508
1484 4 0.605531 0.767514 0.0313689
1482 2 0.586433 0.778518 0.00282808
60 2 0.699858 0.827617 0.0960562
62 4 0.721794 0.831349 0.0676785
1168 4 0.82448 0.803443 0.0053743
1167 2 0.858426 0.815563 0.00431196
1169 4 0.892373 0.827683 0.00324951
1315 4 0.946142 0.753356 0.0437534
1314 2 0.929489 0.774303 0.0195805
1437 2 0.535387 0.861431 0.0495878
1439 4 0.516997 0.88053 0.025145
1441 4 0.588324 0.845067 0.0752143
1440 2 0.615274 0.849374 0.0516436
1442 4 0.642223 0.853681 0.0280725
865 4 0.676726 0.855863 0.0358408
864 2 0.710772 0.864524 0.0277043
866 4 0.74482 0.873185 0.0195691
502 4 0.755608 0.897062 0.046311
501 2 0.78844 0.889435 0.0591291
503 4 0.821272 0.881808 0.0719475
408 2 0.989653 0.837932 0.0376601
410 4 0.957633 0.828205 0.0510974
1331 4 0.507984 0.234243 0.339984
238 4 0.619563 0.922265 0.0188691
237 2 0.596963 0.945444 0.00298471
1139 4 0.680719 0.0263287 0.0714177
859 4 0.66112 0.91026 0.0619623
519 2 0.953106 0.981118 0.0574785
521 4 0.975316 0.955583 0.0699315
134 4 0.650765 0.152218 0.0771218
132 2 0.671197 0.124821 0.0886247
369 2 0.609793 0.150922 0.132252
371 4 0.62019 0.162492 0.0997172
377 4 0.804451 0.0785227 0.158569
951 2 0.8467 0.116561 0.128855
953 4 0.820734 0.126896 0.106064
952 4 0.872664 0.106227 0.151645
324 2 0.931174 0.112421 0.146801
326 4 0.960286 0.121261 0.127444
725 4 0.62474 0.138581 0.260461
370 4 0.599396 0.139353 0.164786
723 2 0.597889 0.137618 0.236408
529 4 0.732382 0.215049 0.155643
457 4 0.844828 0.295649 0.0956626
1379 4 0.893839 0.337197 0.133406
82 4 0.971985 0.231337 0.1166
81 2 0.965038 0.264085 0.130004
386 4 0.607702 0.418497 0.140311
384 2 0.627652 0.441978 0.121574
745 4 0.662411 0.485957 0.153636
746 4 0.651437 0.541587 0.109067
744 2 0.656924 0.513772 0.131351
533 4 0.567087 0.588671 0.127714
437 4 0.730205 0.57488 0.118156
186 2 0.776316 0.595817 0.14145
187 4 0.767014 0.574112 0.114196
532 4 0.604112 0.647171 0.147928
531 2 0.585599 0.61792 0.137821
30 3 0.682959 0.661659 0.0842175
1027 4 0.579601 0.666579 0.169129
1028 4 0.564949 0.735918 0.155751
1026 2 0.572275 0.701248 0.16244
26 1 0.709683 0.680513 0.081188
28 3 0.729772 0.676174 0.107599
304 4 0.698767 0.658592 0.191137