ITEM: TIMESTEP
562500
ITEM: NUMBER OF ATOMS
1520
ITEM: BOX BOUNDS pp pp pp
-6.9326749999999997e+00 6.9326749999999997e+00
-6.9326749999999997e+00 6.9326749999999997e+00
-6.9326749999999997e+00 6.9326749999999997e+00
ITEM: ATOMS id type xs ys zs
786 2 0.177583 0.0678784 0.0816893
788 4 0.195545 0.0855696 0.0559059
637 4 0.211114 0.98573 0.473954
699 2 0.487294 0.00398787 0.0690069
1090 4 0.158557 0.13598 0.00918842
1046 4 0.278076 0.137186 0.00857586
662 4 0.296719 0.145682 0.0385345
722 4 0.436431 0.171045 0.046693
1091 4 0.127885 0.201234 0.00750796
1089 2 0.143221 0.168607 0.00834793
660 2 0.271585 0.164646 0.0561143
720 2 0.457928 0.196502 0.0604871
884 4 0.138865 0.326171 0.0573331
386 4 0.159407 0.299753 0.0496953
384 2 0.171027 0.288954 0.0173102
1001 4 0.450756 0.311178 0.0585976
706 4 0.476942 0.423176 0.00810201
352 4 0.251688 0.473671 0.0397912
351 2 0.262948 0.490463 0.0099309
1472 4 0.0208246 0.573167 0.0560835
1471 4 0.0247488 0.63774 0.0241999
1470 2 0.0227867 0.605453 0.0401414
1277 4 0.0423124 0.665767 0.00775857
263 4 0.226275 0.576353 0.095766
1059 2 0.196502 0.636028 0.0798698
1061 4 0.201555 0.600723 0.0852071
171 2 0.327216 0.662072 0.0141571
172 4 0.299208 0.65688 0.0362697
1060 4 0.191449 0.671332 0.0745328
531 2 0.214272 0.736624 0.0130458
55 4 0.339216 0.719123 0.0280135
251 4 0.475807 0.735536 0.0519248
267 2 0.240121 0.78186 0.0792809
269 4 0.25116 0.759563 0.0531773
533 4 0.227056 0.767739 0.026039
54 2 0.362427 0.743008 0.0141871
56 4 0.385637 0.766894 0.000360928
250 4 0.418103 0.762597 0.0181672
249 2 0.446955 0.749066 0.035046
192 2 0.44608 0.905454 0.0742387
447 2 0.495024 0.962158 0.430312
216 2 0.206318 0.937807 0.0062625
218 4 0.227851 0.951911 0.0315182
494 4 0.351605 0.961545 0.0467255
492 2 0.385461 0.956377 0.0354369
193 4 0.428003 0.925487 0.0503155
493 4 0.419318 0.951209 0.0241485
787 4 0.159621 0.0501869 0.107473
1344 2 0.279792 0.0821725 0.118393
1346 4 0.298684 0.0544857 0.131694
596 4 0.442639 0.00032331 0.177903
594 2 0.465327 0.0200063 0.157947
595 4 0.488016 0.0396891 0.137991
701 4 0.469047 0.0288911 0.0876427
723 2 0.196125 0.151933 0.105071
725 4 0.218105 0.161432 0.0781078
724 4 0.174145 0.142434 0.132035
1345 4 0.260899 0.109859 0.105092
661 4 0.24645 0.183609 0.0736938
211 4 0.366959 0.154276 0.16027
210 2 0.342656 0.180227 0.154241
721 4 0.479424 0.221958 0.0742814
1443 2 0.0334679 0.256011 0.117586
1444 4 0.0633724 0.26958 0.102685
1445 4 0.00356331 0.242443 0.132487
882 2 0.15806 0.315492 0.0859325
999 2 0.458394 0.322798 0.0918703
1310 4 0.458756 0.234504 0.100701
1308 2 0.45545 0.239931 0.136197
926 4 0.115366 0.444372 0.1625
924 2 0.141927 0.430494 0.14244
883 4 0.177255 0.304813 0.114531
346 4 0.27073 0.371418 0.169897
1000 4 0.466031 0.334418 0.125143
715 4 0.461151 0.367536 0.138382
714 2 0.442894 0.38854 0.161315
676 4 0.204035 0.430418 0.10471
675 2 0.205284 0.463436 0.119156
925 4 0.168488 0.416617 0.122381
515 4 0.294932 0.497962 0.0928685
513 2 0.32946 0.493631 0.102328
1028 4 0.404554 0.472558 0.11247
650 4 0.396914 0.475559 0.150442
1202 4 0.374474 0.443554 0.152415
1026 2 0.432263 0.450013 0.107535
1027 4 0.459972 0.427468 0.102601
262 4 0.19569 0.511217 0.100601
261 2 0.210983 0.543785 0.0981832
677 4 0.206531 0.496453 0.133603
514 4 0.363988 0.489299 0.111787
648 2 0.391007 0.511113 0.15167
649 4 0.385099 0.546665 0.152898
932 4 0.358046 0.555135 0.129812
930 2 0.358452 0.591066 0.132847
931 4 0.358857 0.626997 0.135881
1352 4 0.373806 0.655555 0.147741
801 2 0.0768667 0.708958 0.101626
772 4 0.0891583 0.734285 0.150336
802 4 0.0758281 0.672912 0.101604
1399 4 0.179408 0.748389 0.0945543
1400 4 0.219763 0.688812 0.0896794
1398 2 0.199585 0.7186 0.0921168
803 4 0.0779059 0.745005 0.101647
992 4 0.1772 0.770967 0.12343
990 2 0.142115 0.771514 0.115113
991 4 0.10703 0.772061 0.106797
268 4 0.229081 0.804156 0.105385
1514 4 0.217697 0.81023 0.13874
1512 2 0.247074 0.808885 0.159611
327 2 0.492288 0.821562 0.107636
539 4 0.0167358 0.921398 0.085458
686 4 0.107854 0.951944 0.102167
684 2 0.128919 0.9264 0.116455
685 4 0.149983 0.900855 0.130744
194 4 0.464157 0.885421 0.0981618
328 4 0.472105 0.848183 0.0940573
538 4 0.0788459 0.935267 0.119395
537 2 0.0477909 0.928332 0.102426
344 4 0.994132 0.0679667 0.202048
298 4 0.109576 0.000326481 0.197987
227 4 0.334258 0.994859 0.194094
606 2 0.416905 0.0689186 0.223966
607 4 0.447847 0.0579792 0.209023
212 4 0.318354 0.206178 0.148212
579 2 0.442456 0.226625 0.213514
580 4 0.472995 0.22428 0.194479
581 4 0.411918 0.228969 0.232549
570 2 0.125674 0.305727 0.188285
572 4 0.144957 0.275662 0.183318
345 2 0.254571 0.339279 0.16738
347 4 0.238412 0.30714 0.164863
1309 4 0.452143 0.245359 0.171694
469 4 0.015711 0.420025 0.204858
833 4 0.0129642 0.330208 0.261826
571 4 0.106392 0.335792 0.193252
207 2 0.35077 0.334439 0.240044
208 4 0.322749 0.355982 0.232891
1116 2 0.267858 0.393867 0.249767
716 4 0.424638 0.409543 0.184249
156 2 0.460026 0.406259 0.236105
158 4 0.45624 0.397467 0.201337
311 4 0.0317831 0.44804 0.230169
142 4 0.0245872 0.532124 0.200064
309 2 0.0647272 0.450706 0.215746
310 4 0.0976709 0.453371 0.201323
166 4 0.20561 0.481826 0.229469
165 2 0.181915 0.503273 0.212767
1118 4 0.24896 0.420842 0.264451
1200 2 0.362291 0.436662 0.185648
1201 4 0.350107 0.429769 0.218882
141 2 0.0101277 0.516748 0.229302
167 4 0.158219 0.52472 0.196065
1217 4 0.177463 0.553704 0.212319
1215 2 0.150357 0.572966 0.226271
465 2 0.436444 0.561968 0.245777
1287 2 0.11813 0.652552 0.239345
466 4 0.420018 0.593166 0.238211
1068 2 0.0498385 0.67842 0.183904
1069 4 0.0154932 0.671182 0.192173
1070 4 0.0841838 0.685659 0.175633
776 4 0.348017 0.855371 0.446539
2 3 0.131525 0.756942 0.210395
3 3 0.118903 0.704647 0.203728
1289 4 0.138632 0.681391 0.232386
4 3 0.133494 0.735335 0.160718
1 1 0.138744 0.729474 0.193245
5 3 0.17022 0.721545 0.198267
1350 2 0.391703 0.673823 0.173164
1351 4 0.4096 0.692091 0.198588
748 4 0.404507 0.726257 0.212705
771 2 0.0690378 0.761494 0.162797
1278 2 0.0268495 0.815513 0.219055
773 4 0.0489182 0.788702 0.175258
1279 4 0.0279368 0.815924 0.183013
1513 4 0.276451 0.807541 0.180482
747 2 0.388733 0.756529 0.201078
749 4 0.372959 0.7868 0.189451
746 4 0.294226 0.890128 0.244753
404 4 0.485929 0.861642 0.253789
448 4 0.461743 0.948796 0.434093
297 2 0.123793 0.973148 0.216951
299 4 0.138011 0.94597 0.235914
226 4 0.305124 0.978623 0.258042
225 2 0.319691 0.986741 0.226068
1433 4 0.0675223 0.0485735 0.30903
239 4 0.0580248 0.00829154 0.331855
555 2 0.286002 0.0730229 0.311296
556 4 0.260321 0.0576349 0.331398
608 4 0.385963 0.079858 0.23891
1087 4 0.369667 0.0368785 0.304168
1086 2 0.368721 0.0674939 0.285136
624 2 0.476125 0.0849124 0.284711
1374 2 0.42691 0.0102728 0.326987
626 4 0.46789 0.0548872 0.302906
1375 4 0.439716 0.0296047 0.29937
1432 4 0.062417 0.12022 0.315532
1431 2 0.0649696 0.0843971 0.312281
83 4 0.184581 0.106871 0.355144
557 4 0.311683 0.0884115 0.291195
1088 4 0.367776 0.0981092 0.266104
989 4 0.365118 0.161093 0.257355
625 4 0.48436 0.114938 0.266515
80 4 0.0269374 0.250787 0.315194
987 2 0.388428 0.188329 0.26126
988 4 0.411738 0.215565 0.265164
209 4 0.37879 0.312896 0.247197
761 4 0.383631 0.287729 0.272075
759 2 0.402251 0.31112 0.292239
1117 4 0.286756 0.366891 0.235083
113 4 0.425104 0.368596 0.301364
760 4 0.42087 0.334511 0.312403
157 4 0.463812 0.415051 0.270872
111 2 0.414863 0.40064 0.314354
505 4 0.11449 0.510252 0.308208
256 4 0.0966857 0.481807 0.316953
131 4 0.242924 0.443221 0.304873
129 2 0.232871 0.477646 0.301095
243 2 0.421445 0.97929 0.436846
535 4 0.485572 0.443125 0.257691
112 4 0.404624 0.432685 0.327344
504 2 0.0798823 0.519787 0.304778
506 4 0.0452744 0.529323 0.301347
368 4 0.0464407 0.512576 0.335212
130 4 0.222818 0.512071 0.297316
678 2 0.244385 0.561971 0.299329
667 4 0.198827 0.590461 0.327372
679 4 0.254742 0.528461 0.29095
467 4 0.45287 0.53077 0.253343
196 4 0.00847932 0.671176 0.31378
1288 4 0.0976285 0.623714 0.246304
1216 4 0.123251 0.592229 0.240222
1259 4 0.153628 0.665902 0.311934
1257 2 0.176978 0.63989 0.303071
680 4 0.234025 0.595483 0.30771
1258 4 0.20033 0.613877 0.294212
69 2 0.0652368 0.705739 0.297885
70 4 0.0357585 0.68653 0.289981
71 4 0.0947144 0.724948 0.30579
1498 4 0.290932 0.694007 0.267272
1499 4 0.341767 0.719287 0.311752
1497 2 0.316349 0.706647 0.289512
922 4 0.483541 0.749501 0.277848
1261 4 0.447028 0.741131 0.270307
1280 4 0.0257618 0.815101 0.255097
957 2 0.000882426 0.759379 0.270344
958 4 0.0274764 0.778897 0.255777
1242 2 0.165896 0.829672 0.29863
1244 4 0.148789 0.855115 0.279647
1243 4 0.183003 0.804228 0.317614
391 4 0.215168 0.801402 0.332381
390 2 0.242963 0.816015 0.35011
1260 2 0.426042 0.770258 0.273722
1262 4 0.405057 0.799385 0.277138
604 4 0.409815 0.809531 0.311202
744 2 0.29205 0.921225 0.262882
402 2 0.464025 0.865761 0.282138
403 4 0.44212 0.869879 0.310487
601 4 0.413035 0.886488 0.334189
1036 4 0.0489268 0.965446 0.28332
1035 2 0.0167644 0.969944 0.267643
745 4 0.289874 0.952322 0.28101
600 2 0.414965 0.921864 0.340914
237 2 0.0841245 0.0153763 0.35571
238 4 0.110224 0.0224609 0.379564
503 4 0.130416 0.107288 0.40647
82 4 0.254979 0.0912073 0.354491
1051 4 0.323301 0.0424981 0.41925
1171 4 0.0584704 0.190705 0.385001
948 2 0.166179 0.161072 0.357013
949 4 0.146965 0.145141 0.330986
81 2 0.21978 0.0990392 0.354818
1170 2 0.089465 0.187933 0.403224
1190 4 0.0913162 0.238088 0.345298
950 4 0.185394 0.177003 0.383041
811 4 0.489271 0.242896 0.398051
1101 2 0.468598 0.21345 0.365728
1103 4 0.460281 0.244936 0.381216
1189 4 0.125857 0.300426 0.356372
1188 2 0.108587 0.269257 0.350835
528 2 0.233052 0.314192 0.392933
530 4 0.260149 0.305224 0.370894
257 4 0.104167 0.418947 0.35151
1252 4 0.110678 0.444318 0.378101
255 2 0.100426 0.450377 0.334231
152 4 0.491918 0.446002 0.392405
150 2 0.461777 0.446806 0.372624
151 4 0.431636 0.447611 0.352843
366 2 0.0171221 0.528166 0.349274
668 4 0.193492 0.577173 0.398061
666 2 0.196158 0.583815 0.362717
42 3 0.135103 0.590911 0.426529
827 4 0.217926 0.626327 0.328714
825 2 0.24968 0.637873 0.341323
826 4 0.281433 0.649415 0.35393
524 4 0.274275 0.632317 0.383375
522 2 0.299301 0.633094 0.409327
1064 4 0.422779 0.6471 0.377738
560 4 0.421133 0.633508 0.412653
1063 4 0.461254 0.596457 0.34373
1062 2 0.442016 0.621779 0.360734
756 2 0.175873 0.738789 0.423944
757 4 0.189652 0.722797 0.394707
491 4 0.343774 0.691264 0.331644
489 2 0.369635 0.711726 0.346235
490 4 0.395497 0.732188 0.360825
544 4 0.306667 0.828178 0.360334
543 2 0.33127 0.804097 0.349601
545 4 0.355872 0.780015 0.338867
603 2 0.431405 0.813477 0.339815
482 4 0.0627575 0.821794 0.330564
480 2 0.0813957 0.840099 0.355423
481 4 0.100034 0.858404 0.380281
1420 4 0.133758 0.85018 0.365331
1421 4 0.184668 0.901208 0.362883
1419 2 0.159213 0.875694 0.364107
392 4 0.270759 0.830627 0.367838
1318 4 0.32303 0.919128 0.428976
1319 4 0.291294 0.864322 0.394467
1317 2 0.307162 0.891725 0.411721
605 4 0.452995 0.817423 0.368427
586 4 0.482496 0.834968 0.384188
658 4 0.0850771 0.905779 0.435008
1376 4 0.414104 0.990942 0.354605
602 4 0.416896 0.95724 0.347638
1102 4 0.476916 0.181964 0.35024
1050 2 0.303621 0.0670283 0.436895
245 4 0.415511 0.0148491 0.437714
854 4 0.449594 0.0270771 0.446037
852 2 0.481225 0.0368763 0.431758
965 4 0.00389977 0.14322 0.48643
502 4 0.17692 0.0942383 0.460032
501 2 0.153668 0.100763 0.433251
288 2 0.225213 0.110585 0.479281
289 4 0.194295 0.129123 0.480181
290 4 0.256131 0.092047 0.47838
1052 4 0.283941 0.0915586 0.454541
1172 4 0.12046 0.185161 0.421447
964 4 0.0583507 0.190359 0.482604
963 2 0.0311256 0.16679 0.484517
588 2 0.053027 0.264706 0.465749
589 4 0.0809714 0.271627 0.444032
774 2 0.353169 0.865522 0.480756
590 4 0.0250827 0.257785 0.487467
1159 4 0.164417 0.289435 0.490335
1251 2 0.117265 0.419954 0.403857
1253 4 0.123851 0.395589 0.429614
529 4 0.205955 0.323161 0.414972
739 4 0.192439 0.909334 0.464349
1390 4 0.0837772 0.465377 0.490358
244 4 0.427379 0.943732 0.435978
224 4 0.38086 0.437502 0.490811
1281 2 0.00987895 0.553069 0.427759
1283 4 0.0301889 0.564407 0.455316
43 3 0.154903 0.571859 0.473256
44 3 0.179122 0.559286 0.425718
181 4 0.0629997 0.622256 0.491493
41 1 0.162952 0.583104 0.442782
180 2 0.0917548 0.602892 0.481565
182 4 0.12051 0.583527 0.471635
45 3 0.181847 0.609849 0.445334
523 4 0.324327 0.633871 0.435279
558 2 0.388303 0.643133 0.424053
559 4 0.355472 0.652758 0.435453
1479 2 0.118516 0.747608 0.487031
1481 4 0.140358 0.730561 0.46395
758 4 0.162095 0.754781 0.453181
1054 4 0.485602 0.692282 0.448935
1053 2 0.4905 0.713303 0.477823
657 2 0.0914991 0.935793 0.453939
1010 4 0.0105854 0.834825 0.416832
1008 2 0.0197189 0.831431 0.451552
1009 4 0.0288526 0.828038 0.486272
659 4 0.097921 0.965806 0.472869
521 4 0.134184 0.0802232 0.543734
519 2 0.141231 0.0500641 0.525263
638 4 0.195691 0.0104938 0.539913
1451 4 0.317196 0.0197983 0.572776
865 4 0.340764 0.0366382 0.5477
88 4 0.134839 0.090041 0.581962
87 2 0.169355 0.098015 0.588703
592 4 0.222419 0.0867492 0.571659
253 4 0.152061 0.146634 0.548941
591 2 0.254391 0.0780451 0.585887
628 4 0.384496 0.11566 0.518844
627 2 0.367043 0.137285 0.541825
252 2 0.160251 0.181682 0.551167
254 4 0.16844 0.21673 0.553393
1158 2 0.159828 0.268207 0.519123
1160 4 0.155238 0.246979 0.54791
125 4 0.417594 0.294212 0.516465
123 2 0.386966 0.304609 0.53241
124 4 0.356338 0.315006 0.548355
1286 4 0.441381 0.318831 0.527441
855 2 0.375559 0.393508 0.538914
857 4 0.374827 0.379485 0.572129
1284 2 0.47397 0.333703 0.52329
1391 4 0.0746142 0.398739 0.516377
222 2 0.37149 0.469796 0.503835
998 4 0.0414472 0.480996 0.567312
202 4 0.0434116 0.561506 0.528412
201 2 0.0105191 0.554088 0.541198
996 2 0.0707813 0.501909 0.565714
997 4 0.100116 0.522822 0.564116
1094 4 0.279969 0.561048 0.566018
1092 2 0.315177 0.567475 0.570437
612 2 0.257231 0.50812 0.559418
614 4 0.273787 0.534362 0.541042
1093 4 0.350385 0.573902 0.574856
223 4 0.362119 0.502091 0.51686
896 4 0.416089 0.55028 0.57699
1357 4 0.445479 0.535418 0.560547
1307 4 0.235101 0.629433 0.528045
500 4 0.252801 0.678761 0.574079
836 4 0.0441873 0.721729 0.569984
835 4 0.0268694 0.686471 0.509498
834 2 0.0355285 0.7041 0.539741
1306 4 0.186899 0.677353 0.552166
1305 2 0.211 0.653393 0.540105
497 4 0.177135 0.712637 0.552722
495 2 0.182166 0.744575 0.568692
498 2 0.288411 0.680045 0.579619
499 4 0.324021 0.68133 0.585159
1055 4 0.495397 0.734323 0.50671
966 2 0.0400997 0.793082 0.516159
968 4 0.00438207 0.796384 0.512449
967 4 0.0758168 0.789781 0.519869
1480 4 0.0966738 0.764654 0.510112
496 4 0.187198 0.776514 0.584662
719 4 0.198474 0.810148 0.573912
738 2 0.201373 0.902436 0.498598
740 4 0.210306 0.89554 0.532848
718 4 0.225511 0.867224 0.539086
717 2 0.211992 0.838686 0.556499
775 4 0.358322 0.875674 0.514973
23 3 0.352468 0.870059 0.550006
21 1 0.378659 0.866992 0.570611
25 3 0.40154 0.889311 0.563052
22 3 0.391496 0.836592 0.567189
1048 4 0.469626 0.895229 0.564286
1047 2 0.480819 0.905527 0.531589
935 4 0.0801381 0.954379 0.548608
933 2 0.106796 0.976455 0.538489
934 4 0.133454 0.998532 0.528371
636 2 0.203403 0.998112 0.506933
1450 4 0.291247 0.957275 0.59766
1449 2 0.304222 0.988536 0.585218
1049 4 0.492011 0.915826 0.498892
270 2 0.0658948 0.0792879 0.655274
271 4 0.0917998 0.0557637 0.663987
864 2 0.359334 0.0597899 0.568183
866 4 0.377904 0.0829413 0.588667
1085 4 0.362775 0.028814 0.642582
283 4 0.400231 0.0266613 0.647784
282 2 0.434666 0.0373274 0.648746
1349 4 0.486039 0.0190593 0.634408
284 4 0.4691 0.0479932 0.649708
272 4 0.0399897 0.102812 0.64656
1382 4 0.0190573 0.0882444 0.672514
89 4 0.203871 0.105989 0.595444
593 4 0.286364 0.0693415 0.600115
629 4 0.349591 0.158911 0.564807
350 4 0.489276 0.167629 0.627961
1368 2 0.0474486 0.235279 0.671813
1370 4 0.0239697 0.215071 0.653353
393 2 0.128004 0.222791 0.660975
395 4 0.158448 0.214606 0.643465
174 2 0.375636 0.221661 0.644187
176 4 0.352881 0.19625 0.632489
175 4 0.398392 0.247072 0.655886
1249 4 0.481605 0.20144 0.607922
1248 2 0.456025 0.21882 0.626469
1250 4 0.430446 0.236199 0.645018
829 4 0.274609 0.294338 0.625508
828 2 0.276804 0.330242 0.622962
1177 4 0.346731 0.363332 0.615441
830 4 0.278998 0.366145 0.620416
550 4 0.27103 0.391868 0.63732
549 2 0.268966 0.423966 0.621015
1178 4 0.409339 0.365727 0.651164
1176 2 0.378035 0.36453 0.633303
838 4 0.421167 0.366324 0.705791
551 4 0.266901 0.456065 0.604711
613 4 0.240675 0.481878 0.577793
1194 2 0.244085 0.556353 0.656399
1195 4 0.261182 0.552855 0.624842
1358 4 0.501279 0.522378 0.60434
1356 2 0.473379 0.528898 0.582443
137 4 0.302585 0.651289 0.639813
135 2 0.315292 0.651726 0.673559
894 2 0.408403 0.585498 0.575971
895 4 0.400717 0.620716 0.574951
1294 4 0.0462412 0.753001 0.588113
563 4 0.198774 0.678659 0.679499
415 4 0.42751 0.692768 0.622982
414 2 0.435323 0.725274 0.636499
1293 2 0.021344 0.771919 0.606075
1389 2 0.0791957 0.432058 0.503367
48 3 0.475611 0.744257 0.669517
416 4 0.443137 0.75778 0.650016
1489 4 0.388394 0.900847 0.595256
24 3 0.368781 0.871057 0.602326
1488 2 0.407788 0.910221 0.624177
313 4 0.365504 0.825233 0.676181
1083 2 0.365996 0.993283 0.637331
1084 4 0.369218 0.957752 0.632079
1490 4 0.427182 0.919594 0.653098
663 2 0.0780967 0.0139718 0.705908
664 4 0.0574913 0.00247464 0.733178
665 4 0.0987019 0.0254687 0.678638
1207 4 0.230684 0.087197 0.700735
1206 2 0.232237 0.116633 0.721508
1208 4 0.233791 0.146068 0.742282
1369 4 0.0709278 0.255487 0.690272
394 4 0.0975604 0.230977 0.678485
1141 4 0.243033 0.178922 0.735012
634 4 0.075647 0.220574 0.730558
879 2 0.223965 0.306637 0.685816
880 4 0.239944 0.282754 0.707604
1298 4 0.342841 0.259153 0.68314
1296 2 0.366812 0.265307 0.709368
1297 4 0.390785 0.27146 0.735596
839 4 0.476963 0.321321 0.713737
837 2 0.449065 0.343822 0.709764
332 4 0.123348 0.356892 0.699222
330 2 0.157601 0.357975 0.687995
331 4 0.191852 0.359058 0.676769
881 4 0.207987 0.330519 0.664028
295 4 0.20045 0.461932 0.741597
294 2 0.229802 0.451446 0.723461
296 4 0.259154 0.440961 0.705325
90 2 0.166966 0.562598 0.73388
1196 4 0.226987 0.559851 0.687956
1330 4 0.498848 0.58877 0.704317
1322 4 0.157294 0.611363 0.698631
1427 4 0.118584 0.663424 0.735137
1321 4 0.219027 0.642409 0.677972
1320 2 0.188161 0.626886 0.688301
91 4 0.172316 0.597814 0.728256
136 4 0.327997 0.652162 0.707304
687 2 0.355559 0.644939 0.749323
688 4 0.358679 0.663 0.718267
1496 4 0.410249 0.583123 0.760861
1495 4 0.47501 0.60117 0.734744
1494 2 0.442629 0.592147 0.747803
561 2 0.200925 0.710197 0.696852
562 4 0.203076 0.741736 0.714205
1246 4 0.236093 0.745922 0.705654
1072 4 0.203223 0.832702 0.666564
1247 4 0.227966 0.814377 0.684454
1245 2 0.23203 0.78015 0.695054
314 4 0.421376 0.788232 0.649517
312 2 0.393439 0.806732 0.662848
730 4 0.472154 0.785139 0.753022
729 2 0.440891 0.769886 0.762529
49 3 0.49513 0.784372 0.701366
681 2 0.142336 0.905359 0.732933
682 4 0.142577 0.875526 0.712677
1073 4 0.173722 0.867842 0.72221
1071 2 0.188472 0.850272 0.694387
1300 4 0.395454 0.836416 0.709609
1416 2 0.346844 0.883815 0.719731
1418 4 0.329899 0.910727 0.736731
1417 4 0.363789 0.856902 0.70273
1299 2 0.42127 0.860071 0.718233
1301 4 0.447086 0.883727 0.726858
683 4 0.142095 0.935193 0.753189
1211 4 0.260214 0.960068 0.693363
1209 2 0.244733 0.949708 0.72424
1210 4 0.229252 0.939348 0.755118
1024 4 0.316843 0.00317079 0.773354
1025 4 0.344976 0.93933 0.755063
1023 2 0.330909 0.971251 0.764208
103 4 0.4047 0.971944 0.708533
1169 4 0.500221 0.940226 0.674903
104 4 0.457126 0.924367 0.722304
102 2 0.430913 0.948156 0.715418
670 4 0.374211 0.0841115 0.776289
669 2 0.36004 0.050952 0.776519
671 4 0.345871 0.0177931 0.77675
359 4 0.499161 0.984164 0.805804
1457 4 0.0930494 0.101162 0.827299
1204 4 0.226665 0.113984 0.838256
541 4 0.374378 0.0984357 0.814973
635 4 0.0154387 0.224388 0.770081
1142 4 0.208725 0.196 0.79611
1140 2 0.225879 0.187461 0.765561
633 2 0.045543 0.222481 0.750319
29 3 0.326986 0.291223 0.820861
26 1 0.314396 0.321974 0.816887
27 3 0.311877 0.328422 0.784441
30 3 0.334277 0.344107 0.830804
65 4 0.436121 0.272829 0.79071
63 2 0.441202 0.301218 0.812359
64 4 0.446282 0.329607 0.834007
325 4 0.0579749 0.384857 0.828619
28 3 0.283947 0.323719 0.83066
1148 4 0.457984 0.357061 0.856031
1146 2 0.4853 0.380024 0.850842
92 4 0.161616 0.527383 0.739505
1362 2 0.302291 0.580737 0.799575
1363 4 0.325092 0.57328 0.826501
734 4 0.354406 0.537249 0.752886
732 2 0.37221 0.555593 0.77832
1174 4 0.480113 0.940773 0.953735
1425 2 0.104607 0.653018 0.766709
1426 4 0.0906301 0.642611 0.79828
1364 4 0.27949 0.588192 0.77265
689 4 0.352439 0.626878 0.780379
733 4 0.390013 0.573938 0.803755
791 4 0.439693 0.684498 0.790504
789 2 0.46148 0.682252 0.819152
731 4 0.409629 0.754632 0.772036
1469 4 0.141142 0.967377 0.76938
1467 2 0.13662 0.960039 0.804396
1328 4 0.249499 0.947609 0.78362
1326 2 0.232464 0.937358 0.813705
1455 2 0.0806316 0.0752697 0.849111
1456 4 0.0682144 0.0493766 0.870924
1264 4 0.0761091 0.010903 0.879447
1263 2 0.0420232 0.00500485 0.889634
1265 4 0.00793732 0.999107 0.899822
620 4 0.11138 0.0172314 0.885025
464 4 0.250086 0.0328628 0.883874
909 2 0.487139 0.0724364 0.894616
1203 2 0.235874 0.12671 0.870716
1205 4 0.245082 0.139435 0.903176
540 2 0.3926 0.100674 0.846012
542 4 0.410822 0.102913 0.877049
1383 2 0.471094 0.159226 0.870342
910 4 0.47458 0.106234 0.895266
1385 4 0.490196 0.12864 0.870534
754 4 0.00509446 0.271655 0.828988
1409 4 0.0177229 0.26496 0.910245
1407 2 0.0220038 0.23093 0.921382
704 4 0.103184 0.189749 0.884708
702 2 0.11084 0.159991 0.903582
1384 4 0.451992 0.189811 0.870149
1235 4 0.477454 0.211686 0.883473
85 4 0.348138 0.279393 0.876913
84 2 0.376398 0.268927 0.896718
86 4 0.404657 0.25846 0.916523
324 2 0.0486871 0.38947 0.863156
326 4 0.0393998 0.394083 0.897694
623 4 0.157467 0.403017 0.861668
621 2 0.155013 0.40497 0.897592
1291 4 0.381512 0.490744 0.84778
647 4 0.228563 0.53747 0.903309
1292 4 0.327809 0.537727 0.83728
698 4 0.409741 0.51353 0.849206
1290 2 0.35466 0.514235 0.84253
696 2 0.445367 0.508339 0.851269
697 4 0.480993 0.503148 0.853332
155 4 0.498358 0.530202 0.837744
507 2 0.488111 0.633062 0.887746
509 4 0.467441 0.652937 0.86588
804 2 0.0331019 0.714945 0.907106
790 4 0.483268 0.680006 0.847799
1461 2 0.465529 0.741067 0.905775
1504 4 0.239725 0.820155 0.8797
1503 2 0.250047 0.832564 0.847453
954 2 0.17122 0.801999 0.901539
955 4 0.19226 0.826877 0.886087
1505 4 0.260369 0.844973 0.815205
1041 2 0.413921 0.811102 0.915856
1462 4 0.433591 0.757023 0.900694
972 2 0.00212053 0.888022 0.888397
974 4 0.0342429 0.88569 0.872176
1429 4 0.204164 0.91146 0.908845
1043 4 0.399721 0.842304 0.904666
1198 4 0.359511 0.835002 0.897972
1468 4 0.132099 0.952699 0.839411
618 2 0.138533 0.993991 0.880225
619 4 0.165685 0.970751 0.875424
1327 4 0.215429 0.927107 0.843791
1428 2 0.180119 0.923671 0.884905
1430 4 0.156074 0.935883 0.860965
1150 4 0.113802 0.0187641 0.960469
1149 2 0.142965 0.0347319 0.946505
1151 4 0.172126 0.0506998 0.93254
462 2 0.252675 0.0409807 0.918915
463 4 0.255264 0.0490983 0.953955
703 4 0.118495 0.130233 0.922457
161 4 0.163723 0.120805 0.977263
160 4 0.219333 0.135413 0.933722
159 2 0.191528 0.128109 0.955493
1045 4 0.255148 0.0782611 0.97388
1044 2 0.266612 0.107723 0.991228
1408 4 0.0262844 0.196899 0.932518
1231 4 0.14358 0.289474 0.972535
215 4 0.397714 0.232356 0.939629
213 2 0.38871 0.214827 0.96983
214 4 0.379708 0.197297 2.97068e-05
1232 4 0.0725368 0.278757 0.966227
1039 4 0.0425611 0.301203 0.954751
1038 2 0.0464277 0.332713 0.937646
1230 2 0.108058 0.284115 0.969381
385 4 0.182646 0.278157 0.984926
1040 4 0.0502941 0.364223 0.920541
418 4 0.459014 0.373308 0.996485
417 2 0.44472 0.391749 0.968989
1119 2 0.174407 0.456416 0.976253
622 4 0.15256 0.406923 0.933517
1121 4 0.155863 0.427492 0.965301
1120 4 0.192951 0.48534 0.987205
353 4 0.274208 0.507255 0.980071
419 4 0.430425 0.410191 0.941493
646 4 0.195065 0.488469 0.944278
645 2 0.211814 0.512969 0.923793
1227 2 0.469788 0.580461 0.943503
1229 4 0.458345 0.577592 0.97758
1228 4 0.481225 0.583327 0.909428
1275 2 0.0498765 0.674822 0.973682
751 4 0.236802 0.684133 0.935734
1314 2 0.306596 0.647695 0.937369
1315 4 0.273421 0.661832 0.937144
173 4 0.355224 0.667265 0.992045
1316 4 0.339769 0.633558 0.937594
1276 4 0.0574407 0.683877 0.939605
805 4 0.0679026 0.711065 0.915723
1020 2 0.122968 0.708642 0.928706
1021 4 0.127878 0.744362 0.928034
1022 4 0.118058 0.672923 0.929378
752 4 0.169387 0.700138 0.915715
750 2 0.203095 0.692136 0.925724
532 4 0.201488 0.705509 5.27585e-05
956 4 0.15018 0.777119 0.916991
375 2 0.261732 0.811347 0.927165
1199 4 0.316347 0.819462 0.953623
377 4 0.294482 0.799638 0.936694
1042 4 0.42812 0.779899 0.927046
376 4 0.228983 0.823055 0.917635
1197 2 0.337929 0.827232 0.925798
315 2 0.0205712 0.93935 0.959522
316 4 0.0428342 0.945184 0.93176
217 4 0.184786 0.923702 0.981007
1173 2 0.45396 0.964727 0.960264
1175 4 0.427808 0.988681 0.966794
1331 4 0.487165 0.631535 0.647428
1329 2 0.493007 0.610152 0.675872
806 4 0.998301 0.718824 0.89849
357 2 0.494011 0.00661479 0.83355
358 4 0.488861 0.0290656 0.861296
1463 4 0.497467 0.725111 0.910855
520 4 0.148277 0.0199052 0.506792
856 4 0.37629 0.407531 0.5057
1133 4 0.63506 0.013422 0.0204341
169 4 0.654088 0.0372932 0.0421615
168 2 0.686579 0.0437827 0.0279249
170 4 0.719069 0.0502722 0.0136875
361 4 0.993257 0.251149 0.473108
1366 4 0.868204 0.0445175 0.0414987
1365 2 0.877515 0.0199227 0.0168247
37 3 0.960681 0.000762532 0.0195551
293 4 0.86775 0.0748559 0.0252605
291 2 0.871216 0.108436 0.0379399
292 4 0.874683 0.142016 0.0506189
1136 4 0.842716 0.145553 0.0664487
221 4 0.596935 0.211124 0.0288579
219 2 0.607154 0.234813 0.0540533
1439 4 0.689473 0.25392 0.024336
220 4 0.617373 0.258501 0.079249
1334 4 0.761668 0.304507 0.00636137
9 3 0.999646 0.693293 0.211433
475 4 0.818291 0.272547 0.00141243
534 2 0.50383 0.455219 0.286341
651 2 0.691991 0.32618 0.01805
652 4 0.687565 0.356308 0.0373662
888 2 0.707381 0.401689 0.0732372
889 4 0.701071 0.366184 0.0731789
979 4 0.781293 0.360993 0.0588538
1031 4 0.886013 0.360363 0.0334403
335 4 0.860219 0.381513 0.0540124
333 2 0.843155 0.386673 0.0226659
1029 2 0.914161 0.340116 0.0235311
705 2 0.511831 0.43217 0.00959946
707 4 0.546721 0.441164 0.0110973
700 4 0.505541 0.979085 0.0503708
890 4 0.713691 0.437194 0.0732956
843 2 0.567346 0.494232 0.996294
845 4 0.592351 0.518913 0.00441613
808 4 0.582646 0.530785 0.0361306
807 2 0.613274 0.549663 0.0385692
809 4 0.643902 0.568542 0.0410081
574 4 0.934484 0.517018 0.100491
907 4 0.653824 0.608652 0.995565
1139 4 0.919771 0.602269 0.0887495
1138 4 0.919954 0.633822 0.0238957
1137 2 0.919862 0.618046 0.0563227
794 4 0.783377 0.910088 0.498188
1145 4 0.713159 0.675988 0.0308
1143 2 0.733069 0.65616 0.0081983
821 4 0.736405 0.685234 0.0562559
917 4 0.713955 0.718246 0.0658938
916 4 0.690685 0.785622 0.0768789
915 2 0.70232 0.751934 0.0713865
1078 4 0.688651 0.806824 0.0459866
929 4 0.919104 0.769217 0.0554027
928 4 0.884886 0.827064 0.0292392
927 2 0.901995 0.79814 0.0423211
1079 4 0.652836 0.85893 0.0112887
1037 4 0.984602 0.974441 0.251967
1077 2 0.670744 0.832877 0.0286378
599 4 0.858292 0.883034 0.0307855
1132 4 0.626795 0.946599 0.0462794
1131 2 0.630927 0.980011 0.0333573
611 4 0.65003 0.915733 0.0434404
609 2 0.645677 0.910892 0.0789102
764 4 0.650143 0.946081 0.0129254
66 2 0.740524 0.948072 0.0743496
67 4 0.756499 0.955617 0.042912
389 4 0.75684 0.921236 0.00385484
597 2 0.87951 0.912169 0.0296384
598 4 0.900729 0.941305 0.0284913
40 3 0.931455 0.958615 0.0358875
36 1 0.944084 0.9738 0.00964349
1128 2 0.736619 0.00557138 0.131079
1129 4 0.76876 0.0171884 0.119574
478 4 0.557855 0.181886 0.115777
477 2 0.563361 0.152289 0.0959249
479 4 0.568867 0.122692 0.0760725
1134 2 0.816812 0.159083 0.0875746
461 4 0.742719 0.227974 0.138498
341 4 0.776462 0.190506 0.0777975
1135 4 0.790908 0.172614 0.1087
339 2 0.769334 0.220534 0.0964493
777 2 0.641799 0.251818 0.147711
778 4 0.630327 0.25147 0.113525
340 4 0.762205 0.250562 0.115102
16 1 0.912491 0.308406 0.158408
19 3 0.908929 0.287482 0.132535
17 3 0.944845 0.313403 0.163784
978 2 0.788538 0.355074 0.09368
980 4 0.795783 0.349155 0.128507
18 3 0.898022 0.337764 0.151435
517 4 0.513977 0.412004 0.104986
516 2 0.541341 0.42181 0.126327
518 4 0.568705 0.431615 0.147668
1096 4 0.748062 0.458747 0.106155
52 4 0.687192 0.43889 0.0972967
51 2 0.698729 0.454774 0.127546
53 4 0.710266 0.470657 0.157796
1095 2 0.782559 0.469244 0.106547
1097 4 0.817056 0.479741 0.10694
134 4 0.825302 0.486029 0.159599
1519 4 0.602148 0.567832 0.106674
1518 2 0.636299 0.576729 0.114091
1520 4 0.670449 0.585625 0.121508
440 4 0.680239 0.555885 0.150211
423 2 0.879289 0.504848 0.118055
425 4 0.856832 0.497444 0.145282
424 4 0.901746 0.512252 0.090829
573 2 0.942323 0.550606 0.0899647
575 4 0.950163 0.584194 0.0794385
887 4 0.530741 0.610418 0.104086
885 2 0.564457 0.602665 0.114262
886 4 0.598173 0.594913 0.124438
981 2 0.544217 0.746858 0.0993399
983 4 0.567094 0.720824 0.109305
819 2 0.742017 0.678751 0.0912831
428 4 0.733264 0.675679 0.156505
820 4 0.747629 0.672268 0.126309
1081 4 0.936551 0.719961 0.116269
1080 2 0.915194 0.743606 0.0993806
982 4 0.521341 0.772893 0.0893761
329 4 0.512471 0.794941 0.121214
1082 4 0.893837 0.767251 0.0824918
610 4 0.641324 0.906053 0.114379
1192 4 0.654066 0.854085 0.142135
1491 2 0.704364 0.888138 0.132349
1492 4 0.68089 0.872042 0.154491
1493 4 0.727839 0.904234 0.110208
1436 4 0.915552 0.902863 0.0892154
728 4 0.515901 0.0452889 0.156941
68 4 0.72455 0.940527 0.105787
1130 4 0.704477 0.993955 0.142583
1434 2 0.951422 0.900808 0.0922956
727 4 0.554093 0.0248938 0.214622
726 2 0.534997 0.0350914 0.185782
1152 2 0.89064 0.0106159 0.189356
1154 4 0.89619 0.0422296 0.205793
342 2 0.986133 0.0373343 0.219313
435 2 0.509974 0.10536 0.219567
437 4 0.501827 0.105952 0.184443
436 4 0.518121 0.104768 0.25469
779 4 0.653271 0.252165 0.181897
875 4 0.726548 0.253347 0.228969
1104 2 0.859992 0.223393 0.221481
1106 4 0.85332 0.191002 0.207105
577 4 0.639951 0.277259 0.205342
874 4 0.65522 0.261528 0.235823