ITEM: TIMESTEP
1752500
ITEM: NUMBER OF ATOMS
1520
ITEM: BOX BOUNDS pp pp pp
-6.9326749999999997e+00 6.9326749999999997e+00
-6.9326749999999997e+00 6.9326749999999997e+00
-6.9326749999999997e+00 6.9326749999999997e+00
ITEM: ATOMS id type xs ys zs
980 4 0.119633 0.0576432 0.0614968
893 4 0.330062 0.0826722 0.00400979
921 2 0.362673 0.0473082 0.0169021
922 4 0.373608 0.0337379 0.0484716
877 4 0.0310331 0.602665 0.00560566
813 2 0.486694 0.0599141 0.0404025
1441 4 0.00958577 0.785352 0.454006
891 2 0.299527 0.101817 0.00276215
815 4 0.462468 0.0805918 0.0573103
179 4 0.00750901 0.211874 0.0794905
504 2 0.16772 0.173143 0.0451312
505 4 0.173445 0.172425 0.0807277
1486 4 0.208998 0.17926 0.0745743
506 4 0.161996 0.173861 0.00953395
1474 4 0.306352 0.238671 0.050141
1473 2 0.316785 0.214372 0.0746591
389 4 0.00603411 0.297796 0.0566801
1032 2 0.333318 0.361053 0.065572
1033 4 0.322671 0.345396 0.0348817
615 2 0.480552 0.387993 0.0531405
616 4 0.474415 0.353601 0.0620784
545 4 0.22504 0.518038 0.0493894
1071 2 0.363866 0.479556 0.0368438
1073 4 0.329557 0.474908 0.0469302
1072 4 0.398174 0.484203 0.0267566
617 4 0.48669 0.422386 0.044203
153 2 0.45462 0.458264 0.0595367
154 4 0.476683 0.436565 0.0780527
1238 4 0.0948226 0.479191 0.0172931
1236 2 0.12371 0.500383 0.0214009
543 2 0.201849 0.51431 0.076752
155 4 0.432558 0.479962 0.0410208
1503 2 0.400954 0.645283 0.0232208
1504 4 0.391208 0.612814 0.0109254
1505 4 0.410701 0.677752 0.0355156
1063 4 0.410726 0.710015 0.0175756
1062 2 0.387311 0.731674 0.000750931
935 4 0.0167567 0.586919 0.493882
1418 4 0.393297 0.77487 0.00256618
1143 2 0.998887 0.831985 0.369322
88 4 0.0646469 0.893438 0.0528814
87 2 0.028817 0.890034 0.0551437
872 4 0.095311 0.910713 0.065499
322 4 0.248031 0.894791 0.0171025
790 4 0.00271044 0.0942876 0.315212
133 4 0.0160275 0.7303 0.123639
354 2 0.425478 0.889816 0.000522834
356 4 0.45576 0.895473 0.0192683
1466 4 0.475075 0.908059 0.0537126
323 4 0.210778 0.956548 0.0169708
321 2 0.229404 0.925669 0.0170365
721 4 0.313679 0.973371 0.0280619
517 4 0.0367581 0.0609359 0.142567
516 2 0.0463516 0.0655929 0.177016
979 4 0.144038 0.99346 0.083554
978 2 0.131835 0.0255518 0.0725253
182 4 0.233622 0.0368372 0.146718
1312 4 0.289339 0.0670535 0.124753
1313 4 0.296242 0.1298 0.0898687
1311 2 0.292791 0.0984268 0.107311
1022 4 0.398374 0.0863569 0.0877598
1020 2 0.409009 0.0950478 0.121103
1021 4 0.419644 0.103739 0.154446
598 4 0.435812 0.135468 0.158588
1047 2 0.0414703 0.186861 0.137902
1048 4 0.0195738 0.20033 0.112613
1049 4 0.0633667 0.173392 0.163191
151 4 0.0920487 0.196092 0.169024
1485 2 0.241831 0.16932 0.0856989
1487 4 0.274662 0.159381 0.0968219
1475 4 0.327217 0.190073 0.0991768
1113 2 0.455775 0.277982 0.166976
1115 4 0.463415 0.305488 0.144944
196 4 0.461334 0.331668 0.122829
1191 2 0.207345 0.362727 0.159204
1193 4 0.194966 0.364857 0.125401
4 3 0.373528 0.398025 0.102584
1034 4 0.343966 0.376711 0.0962629
1 1 0.372521 0.409728 0.13392
3 3 0.35877 0.386929 0.154194
195 2 0.46403 0.362012 0.142127
197 4 0.466725 0.392357 0.161425
228 2 0.326928 0.485362 0.168005
230 4 0.345527 0.454865 0.163064
2 3 0.353938 0.437206 0.134514
5 3 0.402877 0.416974 0.144158
544 4 0.178659 0.510583 0.104115
1481 4 0.997979 0.740364 0.15468
80 4 0.227897 0.692697 0.181715
78 2 0.192709 0.690532 0.17413
74 4 0.261621 0.679765 0.172051
343 4 0.422834 0.723337 0.155851
1162 4 0.456974 0.732602 0.131275
1163 4 0.48273 0.670669 0.104767
1161 2 0.469851 0.701635 0.118021
1355 4 0.0498246 0.793951 0.154405
795 2 0.130285 0.830386 0.16821
1137 2 0.278582 0.830561 0.164241
1054 4 0.340439 0.799031 0.167902
925 4 0.332426 0.807387 0.0522475
924 2 0.324449 0.793117 0.0843897
1053 2 0.365839 0.773732 0.163995
7 3 0.495482 0.800653 0.106685
10 3 0.443329 0.812074 0.0998408
9 3 0.46095 0.794074 0.147949
6 1 0.464518 0.791884 0.114746
8 3 0.459243 0.760387 0.104742
1353 2 0.0523737 0.823946 0.134554
1354 4 0.0549241 0.853943 0.114699
796 4 0.117425 0.82912 0.134544
871 4 0.119861 0.860773 0.111379
870 2 0.107586 0.885743 0.0884386
926 4 0.316473 0.778846 0.116533
1139 4 0.245126 0.832393 0.177574
489 2 0.41543 0.885278 0.14765
491 4 0.385534 0.897598 0.131688
801 2 0.497216 0.887046 0.138258
802 4 0.472942 0.887574 0.16492
365 4 0.316345 0.987817 0.121241
364 4 0.358668 0.986355 0.179621
363 2 0.337506 0.987086 0.150431
518 4 0.0559451 0.07025 0.211464
823 4 0.208314 0.0884063 0.211347
180 2 0.215688 0.0466063 0.176439
181 4 0.197754 0.0563762 0.20616
1045 4 0.470973 0.0728776 0.193856
1044 2 0.485528 0.0480257 0.172155
824 4 0.162423 0.139383 0.189051
822 2 0.185368 0.113893 0.200199
551 4 0.343739 0.144014 0.206904
599 4 0.469127 0.102114 0.213171
597 2 0.452469 0.118791 0.185879
150 2 0.12672 0.186382 0.171014
152 4 0.161393 0.176669 0.173003
1415 4 0.177161 0.170887 0.209992
1413 2 0.193692 0.177819 0.241285
730 4 0.447771 0.226123 0.211782
729 2 0.472312 0.203438 0.198236
731 4 0.496852 0.180752 0.184689
1114 4 0.448136 0.250476 0.189008
603 2 0.0907831 0.383556 0.253523
605 4 0.110154 0.381287 0.223191
1192 4 0.219726 0.360596 0.193006
1280 4 0.488218 0.426351 0.170155
1160 4 0.192406 0.552062 0.218481
1158 2 0.224099 0.550619 0.235622
229 4 0.308328 0.515858 0.172946
1140 2 0.13633 0.65393 0.213223
1141 4 0.150262 0.65562 0.180005
73 4 0.316298 0.633873 0.18235
72 2 0.28896 0.656819 0.1772
276 2 0.41503 0.620288 0.203759
277 4 0.384212 0.626808 0.186203
1276 4 0.447504 0.576544 0.232963
278 4 0.445848 0.613769 0.221316
79 4 0.157521 0.688367 0.166546
342 2 0.419804 0.694667 0.177514
1427 4 0.34191 0.680298 0.230706
848 4 0.437289 0.692498 0.217622
344 4 0.416773 0.665997 0.199175
1479 2 0.0206786 0.762144 0.172307
1480 4 0.043379 0.783926 0.189934
797 4 0.143144 0.831652 0.201877
1298 4 0.176025 0.840162 0.190117
1296 2 0.181889 0.842509 0.225621
1138 4 0.312038 0.82873 0.150909
1055 4 0.391238 0.748434 0.160087
1361 4 0.0927692 0.856519 0.207376
1359 2 0.107042 0.848135 0.239414
1297 4 0.187753 0.844855 0.261125
245 4 0.165 0.898568 0.189504
102 2 0.301738 0.904103 0.21448
104 4 0.329851 0.903733 0.237062
490 4 0.445326 0.872956 0.163612
244 4 0.190487 0.965636 0.196851
243 2 0.177743 0.932102 0.193177
103 4 0.273626 0.904474 0.191899
235 4 0.0717331 0.0297855 0.281884
234 2 0.102652 0.0217444 0.298611
236 4 0.133571 0.013703 0.315338
447 2 0.400852 0.0268616 0.264681
448 4 0.395389 0.0619422 0.258363
550 4 0.370155 0.103377 0.260312
549 2 0.356947 0.123695 0.233608
1492 4 0.442631 0.147122 0.268164
1491 2 0.473333 0.138361 0.284928
1111 4 0.0301279 0.244692 0.314363
1414 4 0.210219 0.184752 0.272576
469 4 0.231007 0.219992 0.273592
208 4 0.289691 0.209406 0.344369
207 2 0.283497 0.208488 0.308855
209 4 0.277302 0.20757 0.273343
1110 2 0.0632019 0.249179 0.328001
1112 4 0.0962813 0.253665 0.341639
1028 4 0.163639 0.284026 0.325693
468 2 0.216449 0.25163 0.264236
470 4 0.201892 0.283268 0.25488
1412 4 0.0461799 0.360968 0.283355
1410 2 0.0479315 0.357228 0.319178
604 4 0.071414 0.385827 0.283856
22 3 0.10964 0.401663 0.302221
25 3 0.156629 0.41805 0.322735
1067 4 0.0259733 0.412023 0.296497
1065 2 0.0230803 0.447167 0.304044
1066 4 0.0201882 0.482311 0.311592
21 1 0.127572 0.4281 0.31118
23 3 0.13208 0.447686 0.284423
1183 4 0.191144 0.397349 0.319422
1182 2 0.212717 0.425642 0.313545
124 4 0.219483 0.480072 0.331708
1184 4 0.234288 0.453936 0.307667
1043 4 0.0214403 0.567337 0.308091
1041 2 0.0360741 0.5357 0.317332
781 4 0.124402 0.535326 0.326604
780 2 0.118828 0.562522 0.34962
125 4 0.236462 0.524515 0.277501
123 2 0.227973 0.502294 0.304605
1159 4 0.255793 0.549176 0.252763
858 2 0.305976 0.559463 0.285402
860 4 0.278502 0.564927 0.308113
859 4 0.333449 0.553999 0.262692
1275 2 0.440283 0.565235 0.266434
1382 4 0.470296 0.545771 0.310032
695 4 0.418836 0.579858 0.326069
1277 4 0.433062 0.553926 0.299906
1108 4 0.399756 0.484086 0.324471
1126 4 0.0505604 0.651414 0.270364
1142 4 0.122398 0.65224 0.246441
393 2 0.271037 0.634449 0.305336
394 4 0.264729 0.669702 0.309566
395 4 0.277346 0.599197 0.301107
694 4 0.431492 0.648408 0.344573
693 2 0.425164 0.614133 0.335321
1125 2 0.0662495 0.667305 0.29868
1127 4 0.0819388 0.683196 0.326995
1426 4 0.287913 0.679523 0.278512
1425 2 0.314912 0.67991 0.254609
1232 4 0.482346 0.71169 0.25511
847 4 0.433065 0.695709 0.289549
846 2 0.435177 0.694104 0.253586
1145 4 0.0230799 0.837784 0.343216
172 4 0.278804 0.772314 0.269775
171 2 0.311656 0.784572 0.261353
482 4 0.276221 0.756584 0.302075
173 4 0.344508 0.796831 0.252931
647 4 0.396312 0.798956 0.321973
1450 4 0.427152 0.783753 0.327955
282 2 0.0706067 0.853238 0.309534
284 4 0.037543 0.86654 0.315034
710 4 0.0555385 0.892669 0.336313
283 4 0.103671 0.839935 0.304034
1360 4 0.121315 0.839752 0.271451
984 2 0.316649 0.865897 0.313246
986 4 0.352053 0.862045 0.318904
1135 4 0.144664 0.975736 0.31054
1134 2 0.17621 0.968504 0.326443
844 4 0.295257 0.912118 0.319359
845 4 0.291357 0.958745 0.264473
843 2 0.293307 0.935432 0.291916
449 4 0.406314 0.991781 0.271
1269 2 0.397917 0.962009 0.316557
1270 4 0.379296 0.984967 0.295903
429 2 0.490133 0.977576 0.281827
431 4 0.467624 0.949431 0.283118
789 2 0.0153601 0.0728861 0.341335
791 4 0.0280094 0.0514848 0.367458
59 4 0.142265 0.0756263 0.349583
1284 2 0.310901 0.0632965 0.372028
1286 4 0.308891 0.0354544 0.349199
1003 4 0.00360413 0.168191 0.376915
1077 2 0.0797797 0.147738 0.369974
1078 4 0.093679 0.123899 0.393189
57 2 0.118821 0.0830691 0.375953
58 4 0.0953739 0.0905109 0.402322
1285 4 0.312911 0.0911383 0.394858
1079 4 0.065881 0.171577 0.346759
1018 4 0.480275 0.197649 0.355152
1433 4 0.447208 0.217547 0.354628
1027 4 0.109202 0.29668 0.37128
1026 2 0.13642 0.290353 0.348487
1351 4 0.140696 0.297825 0.401031
1432 4 0.419907 0.283079 0.367352
991 4 0.434921 0.307287 0.388988
1431 2 0.433557 0.250313 0.36099
1411 4 0.049683 0.353489 0.355003
126 2 0.251946 0.393374 0.396385
990 2 0.417502 0.338839 0.390201
992 4 0.400084 0.370391 0.391414
24 3 0.111009 0.444856 0.334945
127 4 0.220267 0.407893 0.387104
372 2 0.464313 0.442439 0.373039
373 4 0.445768 0.422912 0.397022
374 4 0.482856 0.461968 0.349057
1498 4 0.412368 0.962505 0.419306
1042 4 0.0507068 0.504063 0.326573
688 4 0.0393107 0.546971 0.424515
782 4 0.113254 0.589719 0.372636
1109 4 0.384823 0.497304 0.39378
1107 2 0.392289 0.490695 0.359126
1380 2 0.495011 0.523725 0.324298
949 4 0.11452 0.622932 0.388035
948 2 0.130586 0.630981 0.4193
547 4 0.0859093 0.708715 0.354274
546 2 0.100042 0.740704 0.363074
676 4 0.222398 0.715109 0.410261
675 2 0.25669 0.704063 0.411831
548 4 0.114175 0.772693 0.371873
1242 2 0.13777 0.835191 0.389121
1243 4 0.11593 0.807908 0.398015
591 2 0.24779 0.796386 0.411249
593 4 0.21413 0.786617 0.419731
481 4 0.266833 0.792417 0.363958
592 4 0.281451 0.806155 0.402765
480 2 0.271527 0.7745 0.333016
118 4 0.418682 0.794649 0.405984
1449 2 0.439682 0.782428 0.361743
1451 4 0.452213 0.781104 0.395531
708 2 0.0382604 0.899647 0.367187
709 4 0.0209819 0.906625 0.39806
147 2 0.261941 0.87114 0.368145
143 4 0.246554 0.900611 0.413398
985 4 0.281243 0.869751 0.307587
149 4 0.291851 0.851748 0.36269
646 4 0.379525 0.868149 0.333464
645 2 0.387918 0.833552 0.327718
280 4 0.13316 0.923719 0.397218
279 2 0.153788 0.948718 0.413028
1136 4 0.207757 0.961273 0.342347
148 4 0.232032 0.890533 0.373601
281 4 0.174414 0.973718 0.428839
1271 4 0.416539 0.939049 0.33721
578 4 0.0798959 0.00300463 0.435044
286 4 0.408566 0.0890014 0.447465
92 4 0.0559868 0.0894457 0.406971
90 2 0.0231588 0.104004 0.410261
892 4 0.268993 0.120962 0.00151413
324 2 0.148995 0.132848 0.441483
326 4 0.160427 0.098738 0.438985
1345 4 0.240614 0.0994304 0.502218
1344 2 0.210755 0.0921605 0.483349
1346 4 0.180897 0.0848912 0.46448
139 4 0.300291 0.151121 0.467175
1267 4 0.334816 0.140146 0.475586
1266 2 0.362451 0.130461 0.496633
285 2 0.437172 0.109924 0.454136
287 4 0.465777 0.130845 0.460807
253 4 0.248596 0.623693 0.484824
325 4 0.137564 0.166957 0.443981
1349 4 0.156447 0.194213 0.461509
1347 2 0.134659 0.222556 0.456783
140 4 0.279951 0.220007 0.473711
138 2 0.29012 0.185564 0.470443
1352 4 0.14195 0.337379 0.461327
1348 4 0.112868 0.250899 0.452057
1350 2 0.141323 0.317602 0.431179
973 4 0.429239 0.272527 0.489295
972 2 0.46349 0.261989 0.485264
461 4 0.131297 0.404771 0.481705
128 4 0.283624 0.378856 0.405665
409 4 0.33075 0.372339 0.469493
410 4 0.38657 0.365839 0.424288
408 2 0.35866 0.369088 0.446891
1200 2 0.44548 0.351184 0.497848
1201 4 0.451198 0.335915 0.465682
460 4 0.104175 0.471327 0.475677
459 2 0.117735 0.438049 0.478691
574 4 0.0112529 0.511165 0.149262
1343 4 0.494832 0.985541 0.167676
933 2 0.0279544 0.586662 0.459604
687 2 0.0722806 0.532832 0.428187
835 4 0.13296 0.523367 0.49506
689 4 0.10525 0.518693 0.431859
216 2 0.158309 0.498637 0.445205
217 4 0.127556 0.50713 0.462014
218 4 0.189062 0.490143 0.428397
934 4 0.0391525 0.586404 0.425327
950 4 0.146652 0.639031 0.450564
573 2 0.000802126 0.533039 0.122566
252 2 0.218631 0.639467 0.497218
1497 2 0.396988 0.970592 0.450903
677 4 0.290982 0.693017 0.4134
400 4 0.311637 0.714484 0.438627
401 4 0.377673 0.729738 0.463288
399 2 0.344655 0.722111 0.450958
1283 4 0.109841 0.805074 0.480225
117 2 0.396013 0.78102 0.430494
119 4 0.373343 0.76739 0.455004
630 2 0.379626 0.853644 0.466672
631 4 0.353266 0.829036 0.466866
1195 4 0.0488212 0.897874 0.422312
1244 4 0.15961 0.862473 0.380226
1196 4 0.111368 0.889535 0.457241
1194 2 0.080095 0.893705 0.439777
632 4 0.405984 0.878252 0.466478
577 4 0.0179079 0.977722 0.461876
576 2 0.0489018 0.990363 0.44846
838 4 0.262008 0.985387 0.472817
837 2 0.226375 0.984991 0.467292
839 4 0.190742 0.984594 0.461766
142 4 0.285897 0.956836 0.435591
141 2 0.266225 0.928723 0.424495
1499 4 0.381608 0.978679 0.482502
974 4 0.497741 0.251451 0.481234
387 2 0.00833523 0.321046 0.0841483
1321 4 0.497194 0.82527 0.0419389
388 4 0.0106362 0.344297 0.111617
175 4 0.47819 0.146659 0.494697
508 4 0.00863637 0.97385 0.496865
1237 4 0.152597 0.521574 0.0255085
1094 4 0.0488605 0.635941 0.0047578
742 4 0.0707641 0.0254783 0.519445
741 2 0.104923 0.0340984 0.527145
743 4 0.139082 0.0427184 0.534845
340 4 0.174578 0.0448477 0.544848
339 2 0.195387 0.0154101 0.545731
1309 4 0.27944 0.0528019 0.534889
1306 4 0.36746 0.0617342 0.506959
1305 2 0.373711 0.0267561 0.513114
1299 2 0.469949 0.00495269 0.572547
55 4 0.146015 0.131328 0.547828
54 2 0.122173 0.132867 0.574839
1310 4 0.322076 0.105015 0.560532
1308 2 0.300758 0.0789085 0.547711
1268 4 0.390086 0.120778 0.517679
1448 4 0.489898 0.408355 0.956242
174 2 0.48886 0.132394 0.526051
176 4 0.49953 0.118128 0.557405
201 2 0.000687166 0.202706 0.509877
1168 4 0.395971 0.232168 0.557579
1307 4 0.379961 0.991779 0.519268
906 2 0.307535 0.324737 0.560796
907 4 0.342236 0.326802 0.570386
937 4 0.159499 0.394004 0.533737
936 2 0.192097 0.37921 0.538087
938 4 0.224694 0.364417 0.542437
908 4 0.272834 0.322673 0.551204
1202 4 0.439761 0.366452 0.530013
17 3 0.313908 0.484188 0.53786
19 3 0.328622 0.434403 0.553462
16 1 0.328089 0.466697 0.562224
774 2 0.42261 0.468778 0.526636
426 2 0.00891186 0.529442 0.530656
428 4 0.00995704 0.504184 0.556374
834 2 0.123292 0.548104 0.519452
836 4 0.113626 0.572842 0.543844
313 4 0.315881 0.585354 0.548789
776 4 0.437877 0.499453 0.537876
1087 4 0.0614191 0.651828 0.53043
1086 2 0.0669829 0.645746 0.565535
1455 2 0.491135 0.261582 0.769286
1234 4 0.320551 0.561549 0.519565
1233 2 0.289098 0.577317 0.511663
890 4 0.25368 0.680312 0.50991
1501 4 0.0462589 0.683839 0.539313
1500 2 0.0323712 0.714179 0.55299
773 4 0.185149 0.731423 0.504148
771 2 0.151297 0.738227 0.51455
888 2 0.276175 0.686365 0.537437
889 4 0.298669 0.692418 0.564964
829 4 0.314495 0.717388 0.57653
1428 2 0.468923 0.737939 0.544525
1430 4 0.442248 0.734688 0.568573
1340 4 0.0597991 0.820183 0.529163
1338 2 0.0345135 0.79655 0.539292
1339 4 0.00922818 0.772918 0.549419
772 4 0.117446 0.745031 0.524952
1281 2 0.133509 0.822835 0.500836
1222 4 0.354932 0.796519 0.573317
1429 4 0.495597 0.741189 0.520477
1282 4 0.157175 0.840597 0.521446
1235 4 0.257644 0.593086 0.503762
881 4 0.00670702 0.336384 0.779103
341 4 0.216198 0.985972 0.546615
1301 4 0.491283 0.980438 0.556917
1089 2 0.0293274 0.0138171 0.61433
1091 4 0.0186919 0.0477566 0.620276
1300 4 0.448614 0.0294665 0.588177
137 4 0.0126348 0.0822329 0.622548
56 4 0.0983303 0.134406 0.60185
850 4 0.160287 0.159589 0.643871
1211 4 0.373997 0.14654 0.640905
1039 4 0.135247 0.218991 0.624825
849 2 0.131054 0.178856 0.635236
851 4 0.101819 0.198124 0.6266
1167 2 0.386972 0.212583 0.58649
1169 4 0.377973 0.192999 0.615402
1362 2 0.0134039 0.23507 0.634163
1364 4 0.0446413 0.25221 0.628608
1038 2 0.13801 0.254291 0.617994
1040 4 0.140773 0.289591 0.611163
807 2 0.401633 0.293951 0.668684
189 2 0.0233625 0.425928 0.642479
190 4 0.0419131 0.396112 0.650678
1007 4 0.0711988 0.382022 0.629903
1005 2 0.102788 0.372821 0.644665
642 2 0.295893 0.361178 0.661338
643 4 0.288998 0.388521 0.63886
809 4 0.427605 0.293328 0.643675
191 4 0.00481321 0.455745 0.63428
1484 4 0.180131 0.455555 0.644939
1482 2 0.214543 0.446599 0.638938
18 3 0.310178 0.470646 0.590214
1483 4 0.248955 0.437643 0.632937
20 3 0.358736 0.477546 0.566906
1336 4 0.143349 0.522026 0.66313
1335 2 0.120942 0.532715 0.636977
1337 4 0.0985332 0.543404 0.610823
312 2 0.340094 0.572442 0.572186
314 4 0.364307 0.559529 0.595583
601 4 0.380796 0.550995 0.627895
600 2 0.41381 0.537167 0.632285
602 4 0.446823 0.523339 0.636675
308 4 0.486138 0.557393 0.630286
1088 4 0.0725468 0.639664 0.600641
1315 4 0.0994377 0.628396 0.617727
1314 2 0.0971425 0.647776 0.648051
826 4 0.306809 0.607127 0.677098
775 4 0.407342 0.438102 0.515395
1502 4 0.0184837 0.744519 0.566666
271 4 0.212046 0.670522 0.598775
270 2 0.233282 0.682869 0.625175
272 4 0.254527 0.695217 0.65158
830 4 0.294489 0.702469 0.644208
828 2 0.304495 0.70993 0.610365
319 4 0.41498 0.713393 0.666335
320 4 0.418979 0.735836 0.597909
318 2 0.416979 0.724614 0.632122
260 4 0.173091 0.785931 0.64864
1221 2 0.364783 0.814987 0.602682
1223 4 0.374634 0.833455 0.632048
257 4 0.500155 0.841923 0.601617
556 4 0.476705 0.869567 0.609803
555 2 0.44939 0.886461 0.626202
557 4 0.422076 0.903354 0.642601
1016 4 0.026334 0.949114 0.595827
1090 4 0.0399626 0.979877 0.608383
1379 4 0.153483 0.926868 0.652768
1377 2 0.168221 0.956844 0.639179
1378 4 0.182959 0.98682 0.625591
1388 4 0.288821 0.963809 0.64159
1391 4 0.399334 0.920644 0.660959
1387 4 0.286676 0.00810757 0.698465
1263 2 0.278697 0.0624607 0.67897
1264 4 0.298242 0.0323489 0.675552
569 4 0.48361 0.0692175 0.67036
165 2 0.132867 0.0824132 0.705054
167 4 0.100903 0.0918982 0.718794
1265 4 0.259153 0.0925726 0.682389
166 4 0.16483 0.0729277 0.691313
883 4 0.268093 0.178237 0.741887
1209 2 0.364868 0.142859 0.675597
1210 4 0.355739 0.13918 0.710289
656 4 0.388996 0.151066 0.721822
567 2 0.474599 0.095626 0.693202
568 4 0.465587 0.122035 0.716045
654 2 0.418027 0.134563 0.735432
63 2 0.156625 0.256402 0.734461
1454 4 0.302769 0.166555 0.742734
1452 2 0.3388 0.167989 0.742352
193 4 0.998301 0.310502 0.750025
65 4 0.170058 0.287758 0.722767
644 4 0.302788 0.333835 0.683817
487 4 0.279623 0.268197 0.75946
488 4 0.279942 0.320388 0.709683
486 2 0.279782 0.294292 0.734572
808 4 0.37566 0.294574 0.693694
914 4 0.0096139 0.34127 0.739155
1006 4 0.134377 0.363621 0.659428
905 4 0.147595 0.341632 0.689067
903 2 0.175513 0.364402 0.690645
904 4 0.203433 0.387172 0.692224
788 4 0.242096 0.384085 0.693186
786 2 0.24306 0.359672 0.719709
1250 4 0.305235 0.471414 0.678264
248 4 0.20911 0.523775 0.734294
246 2 0.190753 0.51932 0.703576
247 4 0.172397 0.514866 0.672859
895 4 0.205992 0.581468 0.734117
1249 4 0.356403 0.517712 0.657288
1248 2 0.330819 0.494563 0.667776
825 2 0.295042 0.64112 0.674569
439 4 0.435423 0.663382 0.687241
1316 4 0.0948487 0.667156 0.678375
1259 4 0.215028 0.659377 0.747927
1257 2 0.232631 0.673699 0.719902
159 2 0.209991 0.746334 0.67747
161 4 0.237478 0.723062 0.675762
827 4 0.283274 0.675126 0.672038
1258 4 0.25023 0.688009 0.691884
667 4 0.277263 0.715363 0.678635
680 4 0.287453 0.690686 0.709351
666 2 0.287365 0.74996 0.677934
678 2 0.305074 0.690263 0.740805
116 4 0.314748 0.699661 0.679876
115 4 0.386656 0.69524 0.676653
114 2 0.3507 0.697451 0.678265
438 2 0.470378 0.670038 0.68139
355 4 0.395195 0.884158 0.981778
1064 4 0.363897 0.753334 0.983927
258 2 0.138537 0.789035 0.658476
259 4 0.103982 0.792138 0.668313
160 4 0.1825 0.76961 0.679171
668 4 0.297462 0.784571 0.677218
225 2 0.316254 0.819215 0.762206
226 4 0.320289 0.785865 0.749096
202 4 0.00557197 0.175688 0.533256
595 4 0.0513946 0.971291 0.67959
594 2 0.0240418 0.952631 0.693875
1386 2 0.287749 0.985958 0.670028
856 4 0.303193 0.980515 0.744187
1389 2 0.413979 0.945896 0.682133
1390 4 0.428623 0.971147 0.703306
633 2 0.211937 0.00825412 0.851874
635 4 0.187397 0.0346755 0.851504
512 4 0.389673 0.0206078 0.829036
793 4 0.0410221 0.13277 0.710819
390 2 0.105544 0.122532 0.77556
391 4 0.115097 0.113017 0.742115
392 4 0.0959914 0.132048 0.809006
455 4 0.209836 0.101787 0.790996
453 2 0.225863 0.0921466 0.821827
1104 2 0.347074 0.105721 0.812528
1106 4 0.318658 0.120633 0.828978
655 4 0.447059 0.118059 0.74904
64 4 0.143191 0.225045 0.746154
882 2 0.257073 0.197941 0.770007
884 4 0.246054 0.217646 0.798126
1453 4 0.374829 0.169425 0.741971
1457 4 0.464263 0.237842 0.773121
1131 2 0.149736 0.327805 0.833135
32 3 0.236977 0.3134 0.804406
31 1 0.218317 0.292344 0.821988
1133 4 0.180981 0.310013 0.830377
33 3 0.190406 0.285662 0.804776
35 3 0.210682 0.306128 0.850806
34 3 0.235645 0.264164 0.827044
912 2 0.0420161 0.343894 0.754767
913 4 0.0744156 0.346521 0.770381
1132 4 0.118491 0.345597 0.835893
403 4 0.0887244 0.383173 0.786081
402 2 0.101887 0.414491 0.798178
787 4 0.244024 0.335259 0.746233
1509 2 0.0805737 0.498586 0.826232
1510 4 0.0870106 0.46937 0.806097
404 4 0.115049 0.445809 0.810274
810 2 0.344559 0.494956 0.818743
300 2 0.419605 0.475194 0.770087
302 4 0.385629 0.485504 0.776391
812 4 0.364685 0.472327 0.799167
301 4 0.453581 0.464886 0.763782
1511 4 0.0741373 0.5278 0.846367
896 4 0.178435 0.628721 0.781119
894 2 0.192214 0.605094 0.757618
679 4 0.322695 0.689835 0.772264
471 2 0.0175544 0.836712 0.811303
473 4 0.0140117 0.864706 0.788848
45 3 0.469271 0.829744 0.810381
477 2 0.0252556 0.910688 0.852792
227 4 0.312219 0.852565 0.775316
711 2 0.28249 0.899991 0.811491
713 4 0.274763 0.868662 0.82759
714 2 0.407575 0.856789 0.767512
716 4 0.38681 0.856929 0.73803
715 4 0.42834 0.856647 0.796995
42 3 0.451596 0.880565 0.811831
43 3 0.4989 0.869298 0.787878
41 1 0.478473 0.861156 0.813103
478 4 0.00055883 0.924702 0.830565
634 4 0.236476 0.981833 0.852244
712 4 0.290218 0.93132 0.795392
855 2 0.302626 0.946602 0.756434
857 4 0.302058 0.91269 0.768683
463 4 0.0569589 0.835075 0.932697
362 4 0.998505 0.0493619 0.883826
1181 4 0.246494 0.0521923 0.874079
511 4 0.453378 0.0164467 0.862592
510 2 0.421525 0.0185272 0.845813
418 4 0.0787323 0.156029 0.829078
417 2 0.106902 0.166516 0.849
454 4 0.24189 0.0825043 0.852659
1179 2 0.269975 0.0781893 0.882632
1105 4 0.37549 0.0908101 0.796078
539 4 0.144092 0.212159 0.882839
419 4 0.135069 0.177005 0.868922
537 2 0.169683 0.229093 0.863899
1463 4 0.372251 0.190292 0.885983
1461 2 0.392888 0.203994 0.912188
538 4 0.195275 0.246028 0.844959
423 2 0.243616 0.330992 0.894902
425 4 0.207631 0.328657 0.894975
36 1 0.0211306 0.407166 0.884828
39 3 0.0276463 0.374941 0.87858
424 4 0.279602 0.333327 0.894828
40 3 0.0371703 0.426202 0.8634
1325 4 0.0572586 0.426361 0.897942
1324 4 0.1196 0.454649 0.920635
1323 2 0.0884295 0.440505 0.909289
811 4 0.324434 0.517586 0.83832
993 2 0.314841 0.408112 0.907534
995 4 0.337034 0.401975 0.879781
682 4 0.444001 0.481138 0.924889
50 3 0.0388045 0.568168 0.857038
670 4 0.0857244 0.550807 0.862002
897 2 0.264023 0.553226 0.926566
898 4 0.280525 0.540249 0.897246
1437 2 0.406203 0.577063 0.850855
1438 4 0.438618 0.562318 0.85653
681 2 0.445292 0.507262 0.900065
683 4 0.446584 0.533387 0.875241
46 1 0.0193212 0.594256 0.861356
48 3 0.0359113 0.622291 0.853693
49 3 0.00880063 0.595521 0.893099
669 2 0.0997992 0.566693 0.891154
671 4 0.113875 0.58258 0.920307
930 2 0.241612 0.656415 0.893251
1439 4 0.373787 0.591808 0.84518
163 4 0.203275 0.699581 0.91003
162 2 0.167273 0.701451 0.910925
274 4 0.343175 0.682705 0.848103
273 2 0.324051 0.704881 0.869147
275 4 0.304927 0.727058 0.890193
932 4 0.268588 0.656475 0.869322
472 4 0.0210962 0.808718 0.833758
479 4 0.0499525 0.896673 0.87502
959 4 0.0692436 0.871534 0.859898
957 2 0.104566 0.871942 0.86715
958 4 0.139888 0.87235 0.874402
1435 4 0.166591 0.895624 0.882317
1434 2 0.194334 0.883377 0.862805
1436 4 0.222078 0.871132 0.843292
44 3 0.493956 0.866024 0.842369
67 4 0.117665 0.988759 0.891348
66 2 0.115839 0.979273 0.856605
68 4 0.114012 0.969788 0.821861
722 4 0.278337 0.00286596 0.97254
720 2 0.296007 0.988119 0.000300576
923 4 0.351738 0.06088 0.985332
1180 4 0.293457 0.104188 0.891185
1207 4 0.0145146 0.192377 0.691947
1407 2 0.0744933 0.196817 0.986208
1409 4 0.0516212 0.168975 0.987676
1408 4 0.0973655 0.224657 0.98474
1462 4 0.413527 0.217695 0.938394
205 4 0.422478 0.197373 0.971732
204 2 0.42643 0.23319 0.973107
206 4 0.430381 0.269008 0.974481
38 3 0.0303679 0.414841 0.916063
464 4 0.0184703 0.77465 0.924387
965 4 0.491014 0.946228 0.774412
874 4 0.249446 0.450915 0.998552
873 2 0.275326 0.430494 0.983934
875 4 0.301205 0.410073 0.969317
994 4 0.292647 0.414248 0.935287
1369 4 0.209436 0.558597 0.943158
899 4 0.247519 0.566202 0.955886
497 4 0.329806 0.570892 0.940487
495 2 0.361239 0.579864 0.955715
496 4 0.392672 0.588835 0.970943
878 4 0.997633 0.608647 0.941963
462 2 0.0377145 0.804862 0.928542
1093 4 0.0890486 0.681607 0.966011
876 2 0.0143332 0.605656 0.973784
792 2 0.00832323 0.117637 0.712302
1092 2 0.0689545 0.658774 0.985384
164 4 0.131271 0.703321 0.911818
1368 2 0.202933 0.593989 0.945496
1370 4 0.19643 0.629382 0.947834
931 4 0.214635 0.656354 0.917181
1246 4 0.0173843 0.164944 0.996824
1416 2 0.393043 0.810448 0.996684
1417 4 0.392789 0.846026 0.990801
427 4 0.00786861 0.554698 0.504939
254 4 0.188665 0.655242 0.509613
541 4 0.56794 0.0115049 0.0123255
962 4 0.638554 0.0197889 0.0339964
960 2 0.64159 0.0401875 0.0635781
203 4 0.995802 0.229723 0.486498
385 4 0.853427 0.00932066 0.0243511
111 2 0.524017 0.202571 0.0548311
113 4 0.523845 0.166544 0.0563803
112 4 0.52419 0.238599 0.0532823
178 4 0.951648 0.173501 0.0548168
177 2 0.979579 0.192687 0.0671533
520 4 0.739428 0.286484 0.0848675
379 4 0.887492 0.303796 0.100574
940 4 0.886508 0.439516 0.0340784
378 2 0.909796 0.325251 0.0820621
1508 4 0.551347 0.373611 0.0629232
1506 2 0.557488 0.391653 0.0323089
1507 4 0.56363 0.409695 0.00169503
1420 4 0.965752 0.389104 0.0687072
380 4 0.932098 0.346705 0.0635505
1419 2 0.979527 0.392014 0.0355076
623 4 0.701559 0.492207 0.00571055
214 4 0.779483 0.372284 0.0801358
213 2 0.791359 0.405367 0.0720769
1494 2 0.844697 0.483515 0.0741286
467 4 0.903532 0.445403 0.000899979
465 2 0.927634 0.464097 0.0201369
466 4 0.951736 0.48279 0.039373
622 4 0.662451 0.551501 0.0182253
1175 4 0.694581 0.563438 0.0350603
621 2 0.682006 0.521854 0.0119669
1010 4 0.720356 0.491189 0.0834044
1122 2 0.779511 0.575411 0.0412417
1124 4 0.773385 0.603618 0.0196253
1123 4 0.785636 0.547205 0.0628581
1496 4 0.843083 0.51277 0.0531052
610 4 0.542316 0.612508 0.0553062
609 2 0.566471 0.594692 0.0752964
626 4 0.513752 0.61561 0.0721656
624 2 0.510205 0.651431 0.0743223
1174 4 0.685902 0.634452 0.0441841
1173 2 0.690239 0.598944 0.0396212
61 4 0.740401 0.622961 0.0576925
1011 2 0.876945 0.659645 0.00801239
1381 4 0.519727 0.501679 0.338565
1012 4 0.850146 0.64307 0.025547
1253 4 0.598131 0.74265 0.0152443
625 4 0.506657 0.687252 0.0764809
1251 2 0.59921 0.753142 0.0497277
1443 2 0.848695 0.727268 0.0164777
887 4 0.864751 0.730191 0.0863166
1444 4 0.86063 0.733071 0.0500085
1320 2 0.516923 0.840622 0.0679296
939 2 0.863802 0.421248 0.0128381
1252 4 0.600291 0.763635 0.0842123
552 2 0.840218 0.804742 0.0797962
554 4 0.867285 0.804381 0.0559703
690 2 0.895811 0.840558 0.00290928
692 4 0.871115 0.825258 0.024274
1464 2 0.50832 0.922009 0.0529706
89 4 0.992989 0.886629 0.0574061
1465 4 0.541565 0.93596 0.0522286
614 4 0.561315 0.968222 0.0473976
540 2 0.580346 0.979189 0.00221704
664 4 0.789373 0.0225962 0.0800899
663 2 0.761055 0.00695744 0.0960245
384 2 0.832987 0.00196017 0.0531337
961 4 0.644626 0.0605871 0.0931597
370 4 0.962015 0.0166535 0.149913
421 4 0.753929 0.156533 0.146539
1150 4 0.843462 0.151639 0.193503
1151 4 0.86798 0.10669 0.142708
1149 2 0.855722 0.129164 0.168105
521 4 0.696459 0.229953 0.0975031
422 4 0.70233 0.192465 0.11121
420 2 0.72813 0.174499 0.128874
862 4 0.505997 0.292877 0.0880928
861 2 0.530351 0.300365 0.113612
863 4 0.554705 0.307853 0.139131
519 2 0.717943 0.258219 0.0911853
868 4 0.893174 0.263683 0.172469
91 4 0.99033 0.11856 0.413552
1288 4 0.556938 0.391928 0.0992532
1287 2 0.565257 0.378024 0.13147
1289 4 0.573575 0.364119 0.163687
531 2 0.943167 0.376366 0.167551
532 4 0.913889 0.395968 0.159871
1372 4 0.921445 0.40814 0.125967
1279 4 0.518694 0.474986 0.12648
1278 2 0.503456 0.450669 0.148318
1290 2 0.76034 0.421408 0.148903
1292 4 0.792858 0.423074 0.133404
215 4 0.803236 0.438449 0.0640184
1373 4 0.863461 0.45101 0.12717
1495 4 0.846312 0.454261 0.0951526
1371 2 0.892454 0.429575 0.126568
1084 4 0.508828 0.518844 0.158943
1085 4 0.568881 0.527507 0.119954
1083 2 0.538855 0.523176 0.139448
1472 4 0.67756 0.50967 0.182425
1009 4 0.722186 0.554877 0.117201
1008 2 0.721271 0.523033 0.100303
911 4 0.887427 0.566596 0.123175
909 2 0.920335 0.553639 0.116132
1070 4 0.833654 0.553159 0.12109
1068 2 0.832279 0.577399 0.147754
507 2 0.981032 0.955904 0.482157
1229 4 0.859689 0.963107 0.471255
910 4 0.953243 0.540681 0.109089
575 4 0.990351 0.554913 0.095869
611 4 0.590625 0.576875 0.0952862
338 4 0.599984 0.631407 0.136602
336 2 0.578971 0.60979 0.156389
328 4 0.737912 0.661586 0.131363
327 2 0.709432 0.672363 0.15068
60 2 0.750692 0.629704 0.0915905
62 4 0.760983 0.636446 0.125487