ITEM: TIMESTEP
748000
ITEM: NUMBER OF ATOMS
1520
ITEM: BOX BOUNDS pp pp pp
-6.9326749999999997e+00 6.9326749999999997e+00
-6.9326749999999997e+00 6.9326749999999997e+00
-6.9326749999999997e+00 6.9326749999999997e+00
ITEM: ATOMS id type xs ys zs
1375 4 0.0980617 0.0262419 0.0119339
1374 2 0.104514 0.0190927 0.0466849
50 3 0.295553 0.140934 0.11013
902 4 0.346296 0.113734 0.00930187
900 2 0.356007 0.0810414 0.0210183
901 4 0.365717 0.048348 0.0327349
427 4 0.197962 0.224704 0.0658293
30 3 0.232549 0.254817 0.0390929
1355 4 0.339515 0.254826 0.0556347
821 4 0.484831 0.182307 0.0244525
1005 2 0.0885072 0.269669 0.0204983
1007 4 0.0666221 0.29672 0.0110281
1006 4 0.110392 0.242618 0.0299691
506 4 0.151092 0.28708 0.0473912
504 2 0.156731 0.31643 0.0272129
27 3 0.266336 0.293334 0.0555894
29 3 0.226864 0.276336 0.0886247
28 3 0.269491 0.24378 0.0773334
26 1 0.248654 0.266903 0.0650427
1120 4 0.296788 0.299796 0.0408734
1119 2 0.302734 0.307299 0.00610648
1070 4 0.409176 0.282652 0.0407905
1354 4 0.411573 0.253537 0.0583891
1462 4 0.0234627 0.134554 0.323919
1353 2 0.375544 0.254181 0.0570118
1068 2 0.434328 0.298045 0.0200341
505 4 0.162371 0.345781 0.00703485
451 4 0.196105 0.34655 0.0238261
1069 4 0.45948 0.313439 0.999278
630 2 0.0410002 0.477754 0.0570855
632 4 0.0731763 0.493734 0.0602087
713 4 0.485582 0.246625 0.463306
1291 4 0.101081 0.481243 0.0362054
1290 2 0.135712 0.475799 0.0446605
330 2 0.480834 0.488545 0.0832694
331 4 0.447532 0.486343 0.0969269
460 4 0.482809 0.97243 0.410069
438 2 0.010808 0.761207 0.0569257
1042 4 0.0109479 0.522367 0.00684162
69 2 0.0972623 0.549741 0.0689662
70 4 0.0838045 0.575398 0.0474947
977 4 0.0926557 0.594504 0.017001
1384 4 0.237539 0.558794 0.0569763
864 2 0.229097 0.499915 0.0870748
866 4 0.217866 0.531494 0.0737683
1242 2 0.315909 0.601275 0.0229213
464 4 0.0136061 0.572867 0.0934316
792 2 0.414862 0.543431 0.0960475
794 4 0.420704 0.579015 0.0963509
497 4 0.497991 0.577311 0.0494658
495 2 0.464055 0.586679 0.057279
436 4 0.0330005 0.66034 0.0753503
975 2 0.124903 0.583594 0.00510626
1383 2 0.205939 0.557695 0.0396383
1244 4 0.329095 0.612934 0.0543949
496 4 0.430119 0.596045 0.0650921
435 2 0.0227418 0.653536 0.0414551
439 4 0.0359968 0.765925 0.082297
1203 2 0.16814 0.71644 0.0262603
1205 4 0.161658 0.682822 0.0149376
1193 4 0.386307 0.713793 0.0102539
459 2 0.449245 0.977095 0.422402
516 2 0.0832199 0.761845 0.0871617
518 4 0.0597074 0.734636 0.0898515
200 4 0.465987 0.506105 0.471769
517 4 0.106732 0.789055 0.0844726
1060 4 0.141103 0.821313 0.0235683
1059 2 0.141352 0.813368 0.0587423
1204 4 0.174623 0.750059 0.0375828
711 2 0.486517 0.282604 0.461057
1402 4 0.38376 0.7919 0.998897
1401 2 0.388167 0.807375 0.031169
1403 4 0.392573 0.82285 0.0634415
938 4 0.0355881 0.79784 0.301375
267 2 0.125361 0.88168 0.00450594
268 4 0.142226 0.855439 0.0225988
1385 4 0.174338 0.556595 0.0223
1295 4 0.495304 0.501033 0.453019
1460 4 0.242851 0.934418 0.0315296
1458 2 0.2559 0.915072 0.0590229
1459 4 0.268949 0.895726 0.086516
108 2 0.0737094 0.991034 0.127613
110 4 0.0662866 0.990169 0.162892
109 4 0.0811327 0.9919 0.0923348
677 4 0.194766 0.0848375 0.12798
675 2 0.184166 0.116977 0.115527
1028 4 0.496359 0.946731 0.395522
428 4 0.200742 0.169365 0.111997
676 4 0.173566 0.149116 0.103073
426 2 0.199352 0.197034 0.0889133
47 3 0.325972 0.141937 0.154525
49 3 0.346423 0.159765 0.107595
46 1 0.318721 0.157722 0.12626
48 3 0.307578 0.18842 0.133565
373 4 0.0354664 0.183061 0.173914
119 4 0.336355 0.187473 0.167755
117 2 0.345971 0.195739 0.201513
961 4 0.251045 0.298967 0.101235
960 2 0.255007 0.310225 0.135264
962 4 0.258969 0.321482 0.169293
1504 4 0.288406 0.332154 0.190301
924 2 0.363828 0.28108 0.13772
926 4 0.334755 0.271407 0.118705
1465 4 0.4445 0.305465 0.0875426
1464 2 0.418896 0.330742 0.0899744
1466 4 0.393291 0.356019 0.0924057
631 4 0.00882394 0.461773 0.0539619
88 4 0.39939 0.466337 0.103821
87 2 0.372613 0.475675 0.126096
1286 4 0.072719 0.952744 0.995221
71 4 0.11072 0.524084 0.0904375
299 4 0.235304 0.513519 0.165096
865 4 0.240328 0.468336 0.100381
793 4 0.409021 0.507847 0.0957444
221 4 0.481978 0.630405 0.128147
232 4 0.0605006 0.657339 0.0979572
231 2 0.0853029 0.678545 0.0826094
233 4 0.110105 0.699751 0.0672615
1153 4 0.188826 0.735977 0.126896
1154 4 0.120548 0.756611 0.116224
1152 2 0.154687 0.746294 0.12156
376 4 0.303108 0.714868 0.168687
1169 4 0.396665 0.74077 0.117973
1061 4 0.1416 0.805421 0.0939161
1167 2 0.405099 0.775614 0.121871
584 4 0.345406 0.81567 0.111116
1168 4 0.413534 0.810457 0.125769
1333 4 0.452512 0.810821 0.126582
1332 2 0.476064 0.790481 0.144805
575 4 0.283251 0.915523 0.113662
573 2 0.266113 0.898101 0.14018
574 4 0.248974 0.88068 0.166697
583 4 0.294799 0.861962 0.0888063
582 2 0.320103 0.838816 0.0999608
1376 4 0.110967 0.0119435 0.0814364
264 2 0.179139 0.99449 0.245811
265 4 0.203161 0.993373 0.218939
509 4 0.368883 0.0442854 0.213283
507 2 0.396067 0.020679 0.215326
508 4 0.423251 0.997073 0.217369
533 4 0.180298 0.137614 0.178357
531 2 0.180978 0.143632 0.213906
434 4 0.0367296 0.807642 0.00817009
1292 4 0.170343 0.470354 0.0531147
372 2 0.0563155 0.185968 0.203194
374 4 0.0771645 0.188875 0.232473
118 4 0.355586 0.204005 0.235272
515 4 0.140936 0.341412 0.176195
514 4 0.148688 0.352292 0.24707
513 2 0.144812 0.346852 0.211632
925 4 0.392901 0.290754 0.156735
245 4 0.440621 0.326294 0.185465
1503 2 0.317199 0.352939 0.196574
1505 4 0.345992 0.373723 0.202847
243 2 0.470344 0.339999 0.200601
1267 4 0.490309 0.546288 0.0288001
997 4 0.484741 0.368308 0.244487
1018 4 0.280548 0.443376 0.264229
588 2 0.300501 0.46547 0.203902
589 4 0.322461 0.473189 0.17636
89 4 0.345835 0.485014 0.148371
530 4 0.0210983 0.603577 0.189852
298 4 0.239784 0.580236 0.19212
297 2 0.237544 0.546878 0.178608
398 4 0.215862 0.604966 0.205239
219 2 0.471917 0.60399 0.150541
220 4 0.461856 0.577576 0.172935
824 4 0.437927 0.550915 0.165543
822 2 0.427797 0.555179 0.199889
218 4 0.396347 0.963592 0.461503
528 2 0.0547567 0.616117 0.18665
529 4 0.0884153 0.628657 0.183449
1327 4 0.410052 0.588293 0.257088
375 2 0.293852 0.749698 0.167423
1256 4 0.344953 0.704714 0.24683
1255 4 0.407808 0.739784 0.251405
1254 2 0.37638 0.722249 0.249117
377 4 0.284595 0.784528 0.16616
1387 4 0.0419914 0.997105 0.190363
1386 2 0.0265933 0.984342 0.22037
1388 4 0.0111953 0.971579 0.250377
230 4 0.0842952 0.964277 0.207065
228 2 0.107938 0.965444 0.23427
229 4 0.131581 0.966611 0.261474
266 4 0.155117 0.995605 0.272683
1073 4 0.340511 0.905298 0.192167
1071 2 0.366892 0.925821 0.205703
1072 4 0.393273 0.946345 0.219238
120 2 0.439013 0.936375 0.243242
121 4 0.419743 0.964469 0.231418
511 4 0.382444 0.0437672 0.317769
745 4 0.0490633 0.129549 0.300284
744 2 0.069829 0.144212 0.274707
532 4 0.181657 0.14965 0.249455
1352 4 0.194287 0.132083 0.27684
1350 2 0.228572 0.132709 0.288002
1351 4 0.262856 0.133335 0.299162
1137 2 0.32263 0.0890205 0.237655
1139 4 0.321653 0.0539567 0.246021
898 4 0.271686 0.122774 0.329271
950 4 0.391611 0.149178 0.287743
1138 4 0.323608 0.124085 0.22929
746 4 0.0905948 0.158876 0.24913
727 4 0.160756 0.255971 0.284439
949 4 0.447131 0.189581 0.265682
948 2 0.419371 0.16938 0.276713
1238 4 0.0328916 0.278999 0.0299035
216 2 0.376983 0.933171 0.461581
728 4 0.138297 0.31677 0.252807
726 2 0.149527 0.28637 0.268623
67 4 0.197916 0.367158 0.349863
66 2 0.164051 0.354837 0.348549
1147 4 0.378444 0.388554 0.205813
1146 2 0.388992 0.39846 0.238844
1148 4 0.39954 0.408366 0.271874
271 4 0.428278 0.396587 0.285516
270 2 0.44092 0.415897 0.313224
772 4 0.019481 0.424725 0.267996
183 2 0.0506534 0.487336 0.247541
184 4 0.0413855 0.458608 0.26727
1369 4 0.0143568 0.603411 0.334523
185 4 0.059921 0.516064 0.227812
922 4 0.147933 0.411471 0.3064
923 4 0.194257 0.464323 0.322598
921 2 0.171095 0.437897 0.314499
1019 4 0.225118 0.449156 0.310008
1017 2 0.252833 0.446266 0.287118
590 4 0.278541 0.457752 0.231445
1368 2 0.0162638 0.56879 0.324613
396 2 0.198766 0.599136 0.23645
397 4 0.18167 0.593305 0.267661
823 4 0.417668 0.559443 0.234235
1320 2 0.0856539 0.66857 0.361393
1321 4 0.115737 0.677968 0.34387
1103 4 0.30266 0.666291 0.316542
1101 2 0.325846 0.642589 0.330721
1102 4 0.349032 0.618887 0.3449
1328 4 0.430765 0.654474 0.237274
1326 2 0.420408 0.621384 0.24718
604 4 0.282022 0.694246 0.302047
603 2 0.291534 0.69497 0.267271
605 4 0.301046 0.695695 0.232494
196 4 0.432728 0.726671 0.27392
195 2 0.448343 0.696492 0.261845
197 4 0.463958 0.666313 0.249769
801 2 0.256785 0.910297 0.493329
362 4 0.057538 0.842841 0.289144
999 2 0.318019 0.778968 0.2523
1001 4 0.349725 0.794833 0.245709
1000 4 0.286313 0.763103 0.258892
841 4 0.363978 0.839451 0.352444
361 4 0.0995462 0.899136 0.272777
360 2 0.0785422 0.870989 0.28096
1029 2 0.159785 0.866858 0.32978
346 4 0.212056 0.887914 0.320572
345 2 0.237161 0.883545 0.295055
1031 4 0.178539 0.897638 0.330903
842 4 0.330561 0.879076 0.302296
347 4 0.262265 0.879176 0.269539
1423 4 0.338511 0.827508 0.229014
1424 4 0.295409 0.880802 0.251459
1422 2 0.31696 0.854155 0.240236
840 2 0.347269 0.859263 0.32737
429 2 0.428834 0.864919 0.354659
430 4 0.429612 0.87371 0.319694
1030 4 0.141031 0.836078 0.328657
122 4 0.458283 0.908281 0.255066
1428 2 0.310464 0.0697599 0.434404
512 4 0.318594 0.0236478 0.344603
510 2 0.350519 0.0337083 0.331186
710 4 0.497403 0.0811124 0.387944
79 4 0.0305475 0.116173 0.410788
899 4 0.306451 0.102215 0.389023
897 2 0.289068 0.112495 0.359146
1429 4 0.30506 0.104752 0.427568
769 4 0.468203 0.0989683 0.400493
304 4 0.296703 0.973368 0.389428
738 2 0.00754081 0.419095 0.008869
1208 4 0.00799835 0.246398 0.333734
407 4 0.0383616 0.789822 0.462444
1206 2 0.0436932 0.248538 0.338391
753 2 0.337825 0.155574 0.410477
754 4 0.326307 0.135919 0.382523
1315 4 0.400007 0.201764 0.401374
384 2 0.493723 0.155502 0.366228
1314 2 0.413468 0.182898 0.373747
386 4 0.461437 0.161421 0.351297
1316 4 0.42693 0.164032 0.34612
634 4 0.0715486 0.339199 0.342789
633 2 0.0635023 0.341357 0.377875
1207 4 0.0793886 0.250679 0.343047
635 4 0.0554562 0.343515 0.412961
68 4 0.130185 0.342515 0.347235
316 4 0.403153 0.320741 0.3723
995 4 0.17742 0.469524 0.0119452
1211 4 0.461233 0.468057 0.351213
272 4 0.453563 0.435206 0.340931
1209 2 0.494584 0.455227 0.356062
62 4 0.00347653 0.547057 0.463678
1370 4 0.0181699 0.53417 0.314702
446 4 0.473476 0.560628 0.346941
1322 4 0.0555711 0.659173 0.378918
695 4 0.0351741 0.647253 0.404773
1406 4 0.382725 0.625194 0.358844
405 2 0.0667304 0.76766 0.460327
444 2 0.492581 0.574134 0.374381
1404 2 0.406767 0.646125 0.341982
1405 4 0.430809 0.667056 0.32512
936 2 0.0696319 0.793143 0.3123
937 4 0.103675 0.788446 0.323226
855 2 0.254397 0.787364 0.40081
856 4 0.27048 0.819631 0.40153
857 4 0.238313 0.755096 0.400091
303 2 0.307159 0.979614 0.355486
305 4 0.317616 0.985861 0.321544
431 4 0.428056 0.856128 0.389624
965 4 0.0969922 0.00651788 0.445248
888 2 0.0470903 0.0505549 0.428763
890 4 0.0645513 0.0194556 0.434088
963 2 0.115448 0.0222281 0.47195
437 4 0.0124832 0.646733 0.00755994
217 4 0.357618 0.90275 0.461658
1430 4 0.315867 0.0347668 0.441239
279 2 0.381139 0.0381493 0.41538
281 4 0.349352 0.0421986 0.431922
280 4 0.412925 0.0340999 0.398838
889 4 0.0296295 0.0816543 0.423437
78 2 0.0148065 0.143305 0.428577
770 4 0.426753 0.146515 0.435462
768 2 0.447478 0.122742 0.417978
80 4 0.999065 0.170438 0.446366
804 2 0.389732 0.184309 0.463255
755 4 0.349342 0.175228 0.438432
805 4 0.355406 0.19467 0.467099
806 4 0.424058 0.173948 0.45941
300 2 0.0271856 0.315771 0.483873
301 4 0.0274797 0.292162 0.456617
1338 2 0.30183 0.299164 0.430626
1339 4 0.26684 0.307313 0.427508
1340 4 0.33682 0.291017 0.433744
712 4 0.487452 0.318583 0.458808
288 2 0.368951 0.333218 0.497799
1076 4 0.491732 0.286292 0.224201
461 4 0.415681 0.981761 0.434736
317 4 0.425912 0.329363 0.440191
315 2 0.414533 0.325052 0.406245
1087 4 0.44799 0.414347 0.461227
1086 2 0.451531 0.379321 0.453409
1088 4 0.455074 0.344296 0.445591
61 4 0.0374448 0.516185 0.408048
559 4 0.0214327 0.492978 0.384708
802 4 0.242339 0.877767 0.499117
988 4 0.330367 0.407423 0.488942
199 4 0.472779 0.435223 0.483228
198 2 0.469383 0.470665 0.477499
60 2 0.0204608 0.531621 0.435863
803 4 0.271232 0.942827 0.487541
693 2 0.0614771 0.64765 0.429439
694 4 0.0877798 0.648047 0.454105
65 4 0.20418 0.65585 0.42821
406 4 0.095099 0.745499 0.45821
843 2 0.456344 0.669777 0.410245
1124 4 0.271758 0.719214 0.457237
64 4 0.26455 0.628437 0.456596
63 2 0.234365 0.642144 0.442403
1122 2 0.304314 0.728755 0.469465
844 4 0.485762 0.659592 0.428446
845 4 0.426927 0.679962 0.392044
289 4 0.396437 0.345862 0.478177
1123 4 0.336869 0.738296 0.481693
1236 2 0.0096967 0.302815 0.0438758
340 4 0.00493596 0.390717 0.203431
339 2 0.00439461 0.400249 0.168657
341 4 0.00385354 0.409781 0.133882
1346 4 0.449708 0.773753 0.498475
169 4 0.038818 0.0269183 0.557261
964 4 0.133904 0.0379382 0.498652
1431 2 0.266505 0.0533499 0.521947
834 2 0.130472 0.105045 0.511312
836 4 0.12583 0.140218 0.504852
628 4 0.415264 0.18523 0.614431
663 2 0.0283804 0.171589 0.615068
335 4 0.127833 0.224734 0.553602
333 2 0.149789 0.199569 0.567205
629 4 0.345712 0.176355 0.597537
627 2 0.380488 0.180793 0.605984
1501 4 0.00203723 0.783896 0.69474
39 3 0.275038 0.397458 0.566146
37 3 0.222947 0.399288 0.551261
36 1 0.247867 0.379045 0.55962
40 3 0.239342 0.361817 0.586253
989 4 0.275745 0.38865 0.532135
38 3 0.253986 0.358304 0.53408
1106 4 0.390736 0.430255 0.557806
1105 4 0.378729 0.495809 0.530236
1104 2 0.384733 0.463032 0.544021
52 4 0.245687 0.550525 0.526524
51 2 0.238839 0.515494 0.521396
53 4 0.231992 0.480462 0.516268
1116 2 0.288579 0.676013 0.554668
1117 4 0.296934 0.656141 0.583577
1226 4 0.253256 0.637427 0.60682
911 4 0.477148 0.327419 0.614814
1345 4 0.491129 0.738969 0.546183
1478 4 0.457948 0.721701 0.557825
1476 2 0.460467 0.68596 0.553744
1477 4 0.462987 0.650219 0.549663
1249 4 0.49238 0.452706 0.8788
1344 2 0.470419 0.756362 0.522329
1493 4 0.114421 0.894483 0.536013
1491 2 0.138421 0.910306 0.557785
839 4 0.325656 0.911819 0.541575
837 2 0.349257 0.891953 0.56025
1513 4 0.462943 0.912014 0.577034
1492 4 0.162421 0.92613 0.579558
1347 2 0.217386 0.969771 0.550183
1348 4 0.240706 0.987603 0.529238
1349 4 0.194067 0.95194 0.571128
1433 4 0.246126 0.0242295 0.528042
168 2 0.0673426 0.0278388 0.579305
170 4 0.095867 0.0287593 0.601349
1264 4 0.0318771 0.0774504 0.644921
665 4 0.0606672 0.183595 0.625737
334 4 0.171746 0.174403 0.580808
188 4 0.342187 0.214267 0.595853
186 2 0.320492 0.237416 0.612994
714 2 0.272224 0.302211 0.622685
187 4 0.298796 0.260566 0.630136
715 4 0.276213 0.28225 0.652451
716 4 0.268235 0.322172 0.592919
1223 4 0.207842 0.518845 0.65215
457 4 0.316779 0.481582 0.620454
1201 4 0.304104 0.589571 0.584209
458 4 0.337164 0.549699 0.60836
456 2 0.326971 0.515641 0.614407
1202 4 0.250794 0.595016 0.63248
1200 2 0.277449 0.592293 0.608345
1224 2 0.24107 0.662763 0.629403
1225 4 0.228883 0.688099 0.651985
1303 4 0.334609 0.757893 0.632301
134 4 0.462611 0.715392 0.633643
132 2 0.444711 0.687242 0.647338
906 2 0.226585 0.806691 0.634803
907 4 0.22392 0.841287 0.644619
1302 2 0.341883 0.72453 0.62071
1304 4 0.349158 0.691166 0.609118
908 4 0.22925 0.772094 0.624988
689 4 0.382947 0.856142 0.637238
688 4 0.436949 0.809435 0.627055
687 2 0.409948 0.832789 0.632147
565 4 0.0300517 0.851991 0.608913
564 2 0.0435465 0.884294 0.617561
1174 4 0.212555 0.87301 0.641906
1173 2 0.206264 0.88839 0.609902
838 4 0.372858 0.872087 0.578925
1514 4 0.407179 0.866278 0.577334
1512 2 0.435061 0.889146 0.577184
566 4 0.0570418 0.916598 0.626209
576 2 0.089462 0.942519 0.656776
578 4 0.0548865 0.948273 0.648302
1175 4 0.199973 0.90377 0.577898
991 4 0.186922 0.931342 0.655387
326 4 0.326107 0.990544 0.61284
1093 4 0.304611 0.896727 0.655135
325 4 0.389127 0.0249634 0.619581
324 2 0.357617 0.00775376 0.61621
1263 2 0.0215943 0.043217 0.649689
992 4 0.158451 0.997548 0.652621
1471 4 0.429711 0.0245697 0.681742
1470 2 0.395918 0.0181913 0.692593
626 4 0.262988 0.113348 0.750417
624 2 0.23313 0.133166 0.754431
81 2 0.172909 0.208099 0.741367
83 4 0.149031 0.235083 0.742833
625 4 0.203272 0.152984 0.758444
82 4 0.196787 0.181116 0.739902
177 2 0.293437 0.335845 0.720768
178 4 0.30516 0.325082 0.688409
1114 4 0.383886 0.271557 0.771564
1198 4 0.242344 0.418194 0.776918
179 4 0.281714 0.346609 0.753128
781 4 0.262748 0.366885 0.77989
1197 2 0.237153 0.423234 0.74159
1451 4 0.00187014 0.404311 0.709333
1449 2 0.0317626 0.401179 0.729258
224 4 0.14789 0.498803 0.709656
247 4 0.155381 0.488061 0.741694
246 2 0.163054 0.455193 0.728996
1221 2 0.229194 0.533067 0.677493
248 4 0.170727 0.422325 0.716298
1199 4 0.231962 0.428273 0.706262
1014 2 0.475354 0.481678 0.798669
1015 4 0.456862 0.512433 0.802225
1016 4 0.493844 0.450923 0.795114
222 2 0.116001 0.511481 0.698575
223 4 0.0841132 0.52416 0.687493
1222 4 0.250545 0.547287 0.702835
501 2 0.27536 0.589175 0.720084
503 4 0.244384 0.570814 0.722015
927 2 0.336882 0.549635 0.687651
928 4 0.318 0.547909 0.656977
1381 4 0.0157733 0.70426 0.691215
929 4 0.355764 0.551361 0.718326
443 4 0.405706 0.650957 0.692325
581 4 0.349091 0.655595 0.710058
1270 4 0.459325 0.551943 0.693097
1269 2 0.474896 0.566709 0.722079
1380 2 0.0342574 0.695942 0.72104
149 4 0.11217 0.727359 0.773954
133 4 0.42681 0.659093 0.661034
579 2 0.331352 0.685042 0.699168
580 4 0.313613 0.71449 0.688277
954 2 0.433101 0.740171 0.757037
956 4 0.438133 0.736691 0.721498
538 4 0.108047 0.813847 0.714196
148 4 0.101978 0.778932 0.724577
147 2 0.107074 0.753145 0.749266
537 2 0.0809774 0.836943 0.708346
338 4 0.209352 0.804499 0.703142
1037 4 0.307456 0.802304 0.729445
1035 2 0.317634 0.776433 0.706478
1036 4 0.327812 0.750561 0.683511
174 2 0.481231 0.745559 0.68602
176 4 0.450976 0.726294 0.689743
1063 4 0.0490899 0.853679 0.742167
539 4 0.0539074 0.860038 0.702496
336 2 0.213939 0.839964 0.707798
172 4 0.192573 0.849807 0.801577
337 4 0.218526 0.875428 0.712453
1265 4 0.0113111 0.00898356 0.654458
577 4 0.124038 0.936765 0.66525
990 2 0.172687 0.964445 0.654004
1094 4 0.249786 0.887337 0.701043
1092 2 0.277199 0.892032 0.678089
1427 4 0.26932 0.895696 0.795598
139 4 0.334992 0.927007 0.727642
1472 4 0.362124 0.011813 0.703443
140 4 0.347117 0.99798 0.73183
138 2 0.341055 0.962493 0.729736
933 2 0.386349 0.0669274 0.758411
935 4 0.351217 0.072645 0.752627
934 4 0.421481 0.0612092 0.764196
235 4 0.108603 0.194158 0.854008
1251 2 0.120137 0.229109 0.797685
1253 4 0.11867 0.244116 0.764927
607 4 0.365219 0.2221 0.816807
1115 4 0.40359 0.287128 0.839172
1113 2 0.393738 0.279342 0.805368
987 2 0.303056 0.398037 0.510538
681 2 0.495372 0.308098 0.797124
858 2 0.118519 0.383983 0.737116
860 4 0.150111 0.393756 0.722735
780 2 0.273315 0.379847 0.81184
782 4 0.283882 0.392807 0.843789
683 4 0.466452 0.328811 0.803038
1235 4 0.434721 0.335062 0.811667
329 4 0.0363435 0.527098 0.782056
859 4 0.0869269 0.374209 0.751497
1450 4 0.061655 0.398047 0.749184
674 4 0.269023 0.528366 0.741858
672 2 0.291723 0.500704 0.737387
673 4 0.314423 0.473042 0.732917
1473 2 0.36388 0.454351 0.780778
1474 4 0.351177 0.427125 0.760834
1475 4 0.376582 0.481577 0.800723
1213 4 0.375143 0.388876 0.804875
310 4 0.0504182 0.601548 0.87945
327 2 0.0125203 0.549546 0.766925
979 4 0.158096 0.650562 0.764186
779 4 0.416279 0.498078 0.809703
777 2 0.42658 0.528443 0.826205
778 4 0.436882 0.558807 0.842706
502 4 0.306336 0.607537 0.718154
980 4 0.108154 0.698997 0.745174
978 2 0.133125 0.674779 0.75468
441 2 0.420395 0.646758 0.724989
442 4 0.435084 0.642559 0.757655
1271 4 0.490466 0.581475 0.75106
1161 2 0.428302 0.605663 0.800586
1163 4 0.412788 0.63554 0.78766
1382 4 0.0527415 0.687624 0.750865
955 4 0.428068 0.743652 0.792575
1062 2 0.0453959 0.850754 0.777919
1064 4 0.0417022 0.847829 0.813672
1425 2 0.298221 0.909832 0.77931
1426 4 0.327123 0.923968 0.763022
656 4 0.199137 0.931965 0.809101
173 4 0.235237 0.906922 0.8125
171 2 0.213905 0.878364 0.807039
785 4 0.118537 0.0361912 0.824796
550 4 0.254371 0.0246984 0.907748
1220 4 0.0420114 0.158408 0.927838
236 4 0.0797991 0.128771 0.844189
784 4 0.109021 0.107287 0.832308
783 2 0.113779 0.0717391 0.828552
370 4 0.0320239 0.235866 0.860103
369 2 0.00784564 0.215375 0.8429
1252 4 0.121606 0.214102 0.830441
234 2 0.0942013 0.161465 0.849098
608 4 0.415704 0.172202 0.80404
606 2 0.390461 0.197151 0.810424
409 4 0.479496 0.282676 0.96611
76 4 0.257049 0.181535 0.975046
522 2 0.140674 0.289185 0.865583
523 4 0.137145 0.283693 0.830118
524 4 0.144203 0.294677 0.901048
129 2 0.058652 0.363713 0.891541
131 4 0.0295196 0.379052 0.876829
1214 4 0.349383 0.394529 0.872002
1234 4 0.414434 0.342528 0.880473
1233 2 0.424578 0.338795 0.846069
1260 2 0.0419192 0.485626 0.848787
1262 4 0.0116391 0.467228 0.855497
1212 2 0.362263 0.391702 0.838439
1418 4 0.335114 0.428226 0.880153
1416 2 0.342491 0.443777 0.911842
1261 4 0.0721996 0.504024 0.842077
311 4 0.0581811 0.533276 0.857536
309 2 0.0542994 0.567412 0.868493
829 4 0.201514 0.602168 0.916135
1330 4 0.233884 0.585468 0.930203
1417 4 0.349868 0.459328 0.94353
449 4 0.0838601 0.617475 0.875023
447 2 0.0766637 0.647662 0.856656
448 4 0.069467 0.677849 0.838288
1329 2 0.265259 0.588081 0.912618
1331 4 0.296633 0.590694 0.895032
1172 4 0.302513 0.600471 0.858765
1170 2 0.32777 0.619021 0.876608
1162 4 0.443817 0.575787 0.813511
1469 4 0.201055 0.71321 0.852785
1467 2 0.220802 0.74293 0.858003
498 2 0.414373 0.654365 0.901426
500 4 0.385622 0.653027 0.8797
499 4 0.443124 0.655703 0.923152
736 4 0.0388579 0.84629 0.854646
735 2 0.0272966 0.826666 0.882604
833 4 0.120912 0.789745 0.86466
1468 4 0.240548 0.772649 0.86322
854 4 0.313401 0.776756 0.926513
737 4 0.0157352 0.807041 0.910562
832 4 0.0880889 0.846797 0.835175
831 2 0.104501 0.818271 0.849918
1151 4 0.305821 0.885219 0.930347
1089 2 0.171313 0.951675 0.900814
1090 4 0.1886 0.961539 0.870743
655 4 0.213525 0.983641 0.857311
654 2 0.206331 0.957803 0.833206
620 4 0.486073 0.0456398 0.663158
240 2 0.0699651 0.0244113 0.951006
242 4 0.0519462 0.0329954 0.920972
549 2 0.250273 0.99982 0.933529
1218 2 0.0406679 0.13168 0.952009
1219 4 0.0393249 0.104952 0.976179
77 4 0.265739 0.212079 0.910292
75 2 0.261394 0.196807 0.942669
408 2 0.458798 0.27124 0.938885
410 4 0.438099 0.259803 0.91166
135 2 0.275096 0.924548 0.965013
237 2 0.0553863 0.328733 0.965443
253 4 0.288967 0.239554 0.922757
252 2 0.310314 0.260183 0.943229
254 4 0.331661 0.280813 0.963701
974 4 0.359795 0.295827 0.975478
973 4 0.397684 0.293252 0.914164
972 2 0.37874 0.294539 0.944821
238 4 0.0722146 0.34618 0.938744
130 4 0.0877843 0.348375 0.906253
551 4 0.246175 0.974943 0.959311
450 2 0.21687 0.363336 0.999588
452 4 0.237635 0.380122 0.97535
862 4 0.0476019 0.438215 0.976936
861 2 0.0814873 0.448181 0.98421
863 4 0.115372 0.458146 0.991484
1356 2 0.197089 0.931572 0.979719
1268 4 0.455759 0.530912 0.967387
993 2 0.169439 0.471881 0.976856
994 4 0.161457 0.474237 0.941769
734 4 0.252805 0.490672 0.979336
1180 4 0.484511 0.455826 0.964621
1181 4 0.451897 0.396524 0.989545
1179 2 0.468204 0.426175 0.977083
241 4 0.0879841 0.0158272 0.981039
733 4 0.27871 0.556805 0.991864
732 2 0.265757 0.523738 0.9856
358 4 0.354793 0.495019 0.943935
357 2 0.355206 0.530753 0.939099
359 4 0.355619 0.566486 0.934264
433 4 0.03636 0.819788 0.937079
1266 2 0.473034 0.5386 0.998093
976 4 0.157151 0.572683 0.993212
269 4 0.108496 0.907922 0.986413
828 2 0.178903 0.60119 0.94421
830 4 0.156293 0.600213 0.972285
1171 4 0.353027 0.637571 0.894452
846 2 0.0202556 0.695211 0.97522
847 4 0.0411886 0.711058 0.9505
302 4 0.0268909 0.339381 0.51113
1178 4 0.183662 0.792854 0.979876
1176 2 0.150768 0.781595 0.970303
226 4 0.233412 0.686364 0.95145
1192 4 0.328027 0.7081 0.968151
227 4 0.284732 0.699194 0.902427
1191 2 0.357167 0.710947 0.989202
225 2 0.259072 0.692778 0.926939
432 2 0.0365447 0.813715 0.972624
568 4 0.243266 0.849225 0.941476
1177 4 0.117874 0.770336 0.96073
852 2 0.277884 0.771378 0.923347
853 4 0.242367 0.766001 0.920182
597 2 0.396151 0.784461 0.951263
598 4 0.427388 0.77949 0.933943
1432 4 0.286883 0.0824702 0.515851
137 4 0.245168 0.943697 0.971178
1091 4 0.154026 0.941811 0.930885
1358 4 0.165528 0.9334 0.962371
567 2 0.211905 0.841413 0.957472
569 4 0.180544 0.8336 0.973468
1150 4 0.266406 0.825123 0.924304
1149 2 0.286114 0.855171 0.927326
136 4 0.305024 0.905398 0.958848
561 2 0.377554 0.882334 0.964498
563 4 0.404765 0.894946 0.944476
562 4 0.350343 0.869723 0.984521
1284 2 0.0491131 0.934592 0.974883
1118 4 0.280225 0.695884 0.525759
599 4 0.364915 0.789432 0.968582
1285 4 0.0255071 0.916439 0.954545
740 4 0.0233835 0.408378 0.978298
835 4 0.135115 0.0698729 0.517773
239 4 0.0385585 0.311286 0.992142
1121 4 0.308682 0.314802 0.971339
1243 4 0.302722 0.589616 0.991448
909 2 0.497896 0.354908 0.604124
953 4 0.493131 0.658274 0.711705
1357 4 0.22865 0.929743 0.997068
290 4 0.341464 0.320573 0.517421
871 4 0.523419 0.0240151 0.0293699
153 2 0.610345 0.0437056 0.081445
155 4 0.61023 0.0791092 0.074591
154 4 0.610459 0.00830212 0.0882993
9 3 0.786345 0.0265078 0.124737
6 1 0.81259 0.0416893 0.138904
7 3 0.840349 0.0311571 0.124099
8 3 0.810123 0.0748278 0.134948
259 4 0.849924 0.0132308 0.0944078
55 4 0.525746 0.853204 0.497792
1164 2 0.661813 0.16863 0.0117986
106 4 0.995593 0.215223 0.347759
445 4 0.511688 0.587639 0.401821
649 4 0.979977 0.553239 0.432752
637 4 0.517278 0.120208 0.203277
820 4 0.519402 0.183122 0.0877437
819 2 0.502117 0.182714 0.056098
1166 4 0.62658 0.161313 0.00944474
558 2 0.993837 0.470258 0.389472
1082 4 0.641342 0.213232 0.0974343
1107 2 0.878388 0.171464 0.00459645
1109 4 0.898941 0.195127 0.0224297
1399 4 0.919124 0.221898 0.0413546
1276 4 0.673868 0.283295 0.0301175
1275 2 0.657188 0.2586 0.0504244
142 4 0.657032 0.308956 0.0116063
160 4 0.842731 0.402779 0.148369
1237 4 0.986502 0.326631 0.0578485
1012 4 0.973449 0.805819 0.272389
387 2 0.895906 0.0972182 0.00543913
867 2 0.616092 0.389564 0.0766919
868 4 0.641512 0.414768 0.0723347
1367 4 0.665499 0.422959 0.0490893
91 4 0.900492 0.449282 0.0424134
90 2 0.866935 0.443969 0.0303239
105 2 0.992255 0.204406 0.381998
1434 2 0.540021 0.449207 0.0150216
1435 4 0.571264 0.439445 0.0301555
1312 4 0.600831 0.464535 0.0263512
1311 2 0.606141 0.464904 0.062017
1313 4 0.611451 0.465272 0.0976835
1365 2 0.69103 0.406409 0.068445
1366 4 0.716562 0.389859 0.0878006
59 4 0.812603 0.549653 0.0624531
881 4 0.980549 0.599844 0.991683
636 2 0.519747 0.155995 0.206967
92 4 0.833378 0.438656 0.0182347
295 4 0.589424 0.71061 0.0965994
294 2 0.568021 0.732592 0.0776496
1307 4 0.638197 0.684076 0.0385817
1232 4 0.513143 0.206825 0.312994
1297 4 0.726095 0.722065 0.0637146
114 2 0.713196 0.691334 0.0175833
116 4 0.698758 0.701667 0.0489705
1298 4 0.785909 0.707972 0.101468
1296 2 0.756002 0.715019 0.082591
399 2 0.855385 0.693147 0.0983411
1409 4 0.905131 0.714998 0.0852378
400 4 0.890837 0.686597 0.0975495
1407 2 0.930946 0.734474 0.0692809
1510 4 0.725255 0.887901 0.459099
1408 4 0.956763 0.75395 0.0533239
870 2 0.529177 0.0515428 0.00679753
1509 2 0.737291 0.854222 0.454488
615 2 0.862185 0.794519 0.0697548
739 4 0.991698 0.429813 0.0394401
440 4 0.98562 0.756489 0.031554
617 4 0.870788 0.770924 0.043877
1497 2 0.578766 0.987934 0.00961401
1498 4 0.547419 0.997275 0.0247967
548 4 0.750001 0.936103 0.0831836
546 2 0.761692 0.965667 0.0661643
258 2 0.867446 0.999835 0.0658777
260 4 0.884968 0.986439 0.0373482
765 2 0.533585 0.0280983 0.174082
10 3 0.813903 0.0342867 0.170877
920 4 0.536872 0.0882997 0.139027
919 4 0.588969 0.103058 0.0913857
918 2 0.56292 0.0956788 0.115206
391 4 0.657024 0.173047 0.16126
596 4 0.561273 0.224882 0.137275
1277 4 0.640509 0.233906 0.070731
1080 2 0.66477 0.196753 0.119341
1081 4 0.688197 0.180273 0.14125
1398 2 0.911307 0.202191 0.0705258
1400 4 0.90349 0.182485 0.0996963
595 4 0.505737 0.259986 0.107524
594 2 0.533505 0.242434 0.1224
159 2 0.851017 0.384315 0.118522
527 4 0.957511 0.276738 0.146508
525 2 0.925398 0.288244 0.134814
380 4 0.963173 0.352256 0.0779217
869 4 0.590671 0.364361 0.081049
312 2 0.716137 0.399654 0.141459
100 4 0.666051 0.384485 0.187134
161 4 0.859302 0.365851 0.0886755
379 4 0.893509 0.37068 0.0748919
378 2 0.928341 0.361468 0.076407
388 4 0.903898 0.0620966 0.00716527
668 4 0.866936 0.485784 0.00164555
1288 4 0.603222 0.479477 0.130077
1287 2 0.622776 0.509601 0.126818
685 4 0.592557 0.384748 0.164573
314 4 0.73798 0.403538 0.113029
57 2 0.824459 0.520714 0.0804081
58 4 0.836315 0.491775 0.0983629
743 4 0.852889 0.48685 0.129815
741 2 0.862219 0.483669 0.164503
463 4 0.986228 0.506144 0.0932962
419 4 0.664367 0.520151 0.106177
1289 4 0.64233 0.539724 0.123559
417 2 0.696264 0.536922 0.107506
418 4 0.728161 0.553692 0.108835
789 2 0.762234 0.586819 0.124617
791 4 0.7616 0.563443 0.0971665
482 4 0.816294 0.263826 0.492256
462 2 0.999917 0.539506 0.0933639
913 4 0.758992 0.639617 0.129529
790 4 0.762868 0.610196 0.152068
1003 4 0.662008 0.754162 0.1654
1306 4 0.643416 0.683915 0.110514
1305 2 0.640807 0.683995 0.0745479
914 4 0.821357 0.674576 0.120038
401 4 0.819933 0.699698 0.0991319
912 2 0.790175 0.657097 0.124783
893 4 0.864667 0.723006 0.217474
1334 4 0.499614 0.770141 0.163027
1004 4 0.688208 0.795075 0.112094
1002 2 0.675108 0.774618 0.138747
652 4 0.696283 0.829785 0.0980355
616 4 0.853581 0.818115 0.0956325
5 3 0.608889 0.913486 0.217302
653 4 0.752593 0.839986 0.14193
651 2 0.724438 0.834886 0.119983
416 4 0.747923 0.875103 0.142988
535 4 0.631819 0.0123218 0.116527
4 3 0.632013 0.922491 0.169001
534 2 0.631032 0.986306 0.141486
536 4 0.630246 0.96029 0.166446
1445 4 0.710245 0.942398 0.141304
1444 4 0.661616 0.905194 0.179418
1443 2 0.685931 0.923796 0.160361
547 4 0.773384 0.995232 0.0491445
766 4 0.536991 0.994852 0.187628
542 4 0.863562 0.0726129 0.248763
638 4 0.522217 0.191781 0.210657
390 2 0.672854 0.143786 0.175177
392 4 0.688683 0.114526 0.189094
540 2 0.862112 0.0368661 0.244238
541 4 0.860662 0.0011196 0.239713
455 4 0.935185 0.166446 0.268907
86 4 0.852513 0.209117 0.217022
905 4 0.827329 0.889383 0.454647