ITEM: TIMESTEP
330500
ITEM: NUMBER OF ATOMS
1520
ITEM: BOX BOUNDS pp pp pp
-6.9326749999999997e+00 6.9326749999999997e+00
-6.9326749999999997e+00 6.9326749999999997e+00
-6.9326749999999997e+00 6.9326749999999997e+00
ITEM: ATOMS id type xs ys zs
140 4 0.00239325 0.0328447 0.0467141
1158 2 0.21441 0.0394302 0.0523484
1159 4 0.242412 0.0196844 0.0411047
1160 4 0.186409 0.0591761 0.0635919
1259 4 0.27742 0.0290954 0.045163
1257 2 0.288931 0.0595417 0.0296411
147 2 0.44798 0.0561083 0.0852186
148 4 0.431019 0.0248153 0.0794881
1258 4 0.300441 0.0899879 0.014119
194 4 0.394924 0.0848977 0.0437761
192 2 0.373544 0.0963075 0.017072
658 4 0.1507 0.244566 0.0473653
774 2 0.496388 0.874027 0.427134
657 2 0.18065 0.230537 0.0329906
659 4 0.210599 0.216507 0.0186158
1488 2 0.495739 0.0766504 0.393845
1077 2 0.329034 0.238602 0.0217529
1078 4 0.351882 0.248368 0.0478863
814 4 0.136337 0.273423 0.0310064
813 2 0.123142 0.285395 0.999654
949 4 0.496632 0.323501 0.0114293
948 2 0.477645 0.32668 0.041922
950 4 0.458658 0.329858 0.0724145
163 4 0.173973 0.396696 0.0136269
1172 4 0.241659 0.407078 0.0402499
1171 4 0.303308 0.372098 0.0269268
776 4 0.494784 0.906381 0.411289
1170 2 0.272483 0.389588 0.0335882
1401 2 0.354272 0.365336 0.0203812
357 2 0.409434 0.339594 0.0884938
358 4 0.377334 0.345764 0.0732652
1402 4 0.383172 0.360638 0.0414323
451 4 0.0185784 0.481867 0.00423043
162 2 0.165481 0.421538 0.0383485
164 4 0.156989 0.44638 0.0630708
811 4 0.124337 0.441026 0.0931018
796 4 0.257618 0.464269 0.00927604
797 4 0.217779 0.489477 0.0638573
795 2 0.237699 0.476873 0.0365668
450 2 0.024187 0.50836 0.0280446
452 4 0.0297958 0.534852 0.0518586
1321 4 0.075355 0.574074 0.0936338
938 4 0.186195 0.596901 0.0888719
888 2 0.0474767 0.586098 0.031049
889 4 0.0565078 0.564182 0.0582257
111 2 0.00952157 0.661283 0.0071087
112 4 0.029263 0.686587 0.023552
937 4 0.199137 0.583477 0.0192017
936 2 0.192666 0.59019 0.0540365
1468 4 0.308459 0.663344 0.0828495
1467 2 0.328015 0.646944 0.0573748
1469 4 0.347571 0.630544 0.0318994
15 3 0.296757 0.728117 0.0273206
11 1 0.279122 0.736896 0.0536024
66 2 0.0258564 0.769943 0.028702
68 4 0.0341714 0.750024 0.05759
1202 4 0.314364 0.758609 0.0398904
12 3 0.247102 0.738811 0.045134
13 3 0.289204 0.766839 0.0646347
1200 2 0.338352 0.768112 0.0146972
918 2 0.00398949 0.826994 0.110956
30 3 0.370084 0.909888 0.0251689
1483 4 0.00473049 0.27524 0.321658
26 1 0.400943 0.910633 0.0139443
27 3 0.411954 0.879564 0.0101783
793 4 0.142004 0.951097 0.0679005
28 3 0.420668 0.926525 0.0358142
165 2 0.331668 0.991047 0.489723
1394 4 0.128353 0.0732834 0.106795
175 4 0.127562 0.0749309 0.140963
174 2 0.145562 0.0576612 0.167004
630 2 0.322464 0.0724727 0.147538
1180 4 0.334108 0.0349128 0.112242
631 4 0.331044 0.070337 0.112578
1179 2 0.363839 0.0220273 0.0964171
1181 4 0.393561 0.0091429 0.0805921
1117 4 0.491083 0.0766229 0.110441
1034 4 0.0509187 0.125239 0.110932
1032 2 0.0239253 0.105446 0.0975155
1392 2 0.0977313 0.088786 0.0957337
1393 4 0.0671091 0.104289 0.0846719
1465 4 0.18261 0.122842 0.168168
1464 2 0.198902 0.154094 0.160538
149 4 0.464946 0.0874089 0.0909478
1037 4 0.00667717 0.243333 0.168669
1466 4 0.215195 0.185347 0.152907
1312 4 0.237848 0.201828 0.128627
1311 2 0.262341 0.211801 0.153143
892 4 0.450192 0.15784 0.152997
891 2 0.440118 0.167469 0.119737
893 4 0.430043 0.177098 0.0864779
1054 4 0.451178 0.265203 0.180085
359 4 0.441534 0.333425 0.103722
328 4 0.00310861 0.475047 0.0895432
327 2 0.0165208 0.451063 0.112894
329 4 0.0299331 0.427078 0.136245
810 2 0.148716 0.467268 0.0972787
663 2 0.337513 0.475957 0.148569
665 4 0.359784 0.447657 0.146675
812 4 0.173095 0.493509 0.101455
1286 4 0.165812 0.518734 0.126053
1284 2 0.187917 0.544638 0.114191
1285 4 0.210022 0.570543 0.102327
664 4 0.315243 0.504256 0.150462
875 4 0.315218 0.521915 0.180029
1320 2 0.0437568 0.579059 0.110281
1322 4 0.0121584 0.584042 0.126927
323 4 0.336414 0.86302 0.431158
1366 4 0.222662 0.612662 0.0935063
1365 2 0.257551 0.621749 0.0927314
1367 4 0.29244 0.630834 0.0919551
719 4 0.296732 0.651484 0.121064
717 2 0.311322 0.636285 0.15033
718 4 0.325912 0.621087 0.179597
424 4 0.210932 0.709493 0.140004
423 2 0.228767 0.717445 0.109688
14 3 0.282562 0.71405 0.077812
425 4 0.246602 0.725398 0.0793711
1499 4 0.231642 0.814146 0.100037
1361 4 0.44949 0.814306 0.0928861
1359 2 0.426037 0.805106 0.118688
919 4 0.0216439 0.830023 0.142254
1381 4 0.100953 0.897586 0.174465
1497 2 0.251458 0.838389 0.117927
1498 4 0.271273 0.862633 0.135816
143 4 0.271233 0.8957 0.154453
1380 2 0.0738527 0.920195 0.167062
1382 4 0.0467521 0.942804 0.15966
792 2 0.157828 0.958212 0.0995132
794 4 0.173653 0.965326 0.131126
1430 4 0.192932 0.934825 0.142081
619 4 0.472288 0.955258 0.130148
618 2 0.449093 0.969983 0.106791
620 4 0.425901 0.9847 0.0834347
206 4 0.0746364 0.063036 0.269136
94 4 0.0644926 0.0530783 0.236151
93 2 0.0640237 0.0641785 0.201844
218 4 0.222543 0.0231496 0.167384
176 4 0.163563 0.0403913 0.193045
1010 4 0.183028 0.0598872 0.213577
1009 4 0.207683 0.000607546 0.246435
1008 2 0.195356 0.0302472 0.230006
217 4 0.276481 0.0691649 0.180612
632 4 0.313883 0.0746084 0.182499
216 2 0.249512 0.0461572 0.173998
95 4 0.0635547 0.0752787 0.167537
674 4 0.00680221 0.232812 0.200833
671 4 0.252823 0.234547 0.259348
1313 4 0.286833 0.221773 0.17766
157 4 0.396676 0.207849 0.240201
1053 2 0.433547 0.237385 0.194772
1055 4 0.415915 0.209567 0.209459
673 4 0.0445123 0.292527 0.215453
672 2 0.0256575 0.26267 0.208143
605 4 0.46657 0.291443 0.265755
524 4 0.116373 0.402606 0.226457
539 4 0.203514 0.55006 0.233476
538 4 0.132919 0.562875 0.226138
537 2 0.168217 0.556468 0.229807
873 2 0.333905 0.550451 0.191727
874 4 0.352592 0.578987 0.203427
614 4 0.384146 0.584855 0.218472
1293 2 0.00706438 0.652233 0.230882
307 4 0.16342 0.629558 0.213174
306 2 0.153837 0.661156 0.198678
1185 2 0.493973 0.655533 0.168949
1294 4 0.0197763 0.671819 0.258364
308 4 0.144255 0.692754 0.184182
684 2 0.230922 0.739757 0.230733
1399 4 0.303742 0.736093 0.195799
1398 2 0.291257 0.703589 0.186417
686 4 0.236648 0.746857 0.195844
1400 4 0.278772 0.671085 0.177036
1187 4 0.473078 0.684611 0.173222
1502 4 0.138703 0.781459 0.232297
1500 2 0.106889 0.771837 0.246287
274 4 0.317824 0.770101 0.201659
1360 4 0.402585 0.795907 0.14449
273 2 0.348534 0.773666 0.183095
275 4 0.379242 0.777231 0.16453
472 4 0.0704211 0.895368 0.228394
471 2 0.0874745 0.916211 0.252376
141 2 0.264147 0.911311 0.186179
1429 4 0.190638 0.977803 0.199954
1428 2 0.191785 0.956314 0.171017
142 4 0.25706 0.926921 0.217905
1019 4 0.4027 0.0239026 0.252261
1017 2 0.433739 0.00608706 0.247835
1030 4 0.267673 0.0217651 0.322948
205 4 0.0255211 0.106519 0.299111
204 2 0.0500787 0.0847775 0.284123
1058 4 0.149155 0.159434 0.297923
1056 2 0.113621 0.165258 0.29596
670 4 0.236402 0.166026 0.243956
1057 4 0.0780878 0.171081 0.293997
669 2 0.244613 0.200287 0.251652
478 4 0.317077 0.229487 0.264444
158 4 0.429806 0.20245 0.304036
156 2 0.413241 0.205149 0.272119
403 4 0.435147 0.173362 0.322403
604 4 0.485626 0.223635 0.250246
1446 2 0.00034622 0.316166 0.306705
1447 4 0.0168751 0.332078 0.278885
479 4 0.350163 0.28955 0.286791
477 2 0.33362 0.259519 0.275617
603 2 0.476098 0.25754 0.258001
439 4 0.0477073 0.351158 0.291866
438 2 0.0690465 0.369095 0.26899
440 4 0.0903855 0.387032 0.246114
1070 4 0.350359 0.31858 0.310098
1243 4 0.151892 0.471231 0.291509
523 4 0.133527 0.441447 0.284756
522 2 0.12495 0.422027 0.255606
1244 4 0.214453 0.437339 0.303301
1242 2 0.183172 0.454285 0.297405
198 2 0.31249 0.463409 0.321257
930 2 0.39011 0.445317 0.310425
932 4 0.426117 0.447159 0.311161
320 4 0.456479 0.462791 0.318494
318 2 0.491686 0.455246 0.320462
1274 4 0.194664 0.56684 0.32378
1272 2 0.18753 0.532874 0.313993
1273 4 0.180397 0.498907 0.304205
199 4 0.29223 0.485985 0.301756
1103 4 0.46574 0.544273 0.315483
1101 2 0.452013 0.520153 0.292457
1102 4 0.438286 0.496033 0.269431
612 2 0.386688 0.576455 0.253449
613 4 0.389231 0.568054 0.288425
641 4 0.475259 0.577023 0.309081
313 4 0.014785 0.711953 0.265537
312 2 0.00890579 0.716284 0.300851
1501 4 0.0750758 0.762215 0.260277
685 4 0.225196 0.732657 0.265621
1288 4 0.00203722 0.967972 0.257583
908 4 0.412418 0.771341 0.334997
559 4 0.474282 0.805983 0.266533
244 4 0.113117 0.937005 0.30767
243 2 0.107323 0.914381 0.335146
367 4 0.414394 0.85674 0.280142
368 4 0.480838 0.839901 0.257709
366 2 0.447616 0.84832 0.268926
1289 4 0.0646521 0.978726 0.29172
1287 2 0.0333445 0.973349 0.274652
473 4 0.104527 0.937054 0.276358
1031 4 0.292823 0.95467 0.33115
1029 2 0.280248 0.988218 0.327049
1018 4 0.464778 0.988272 0.243409
280 4 0.161646 0.997076 0.417993
855 2 0.266066 0.0748372 0.359156
857 4 0.260585 0.0537263 0.330439
1489 4 0.48489 0.042263 0.393383
944 4 0.00371776 0.164328 0.369463
989 4 0.277182 0.127023 0.40859
856 4 0.271546 0.0959488 0.387873
404 4 0.481514 0.158339 0.375563
551 4 0.0362303 0.207352 0.396203
1484 4 0.0219786 0.230779 0.375762
1482 2 0.0133546 0.253009 0.34871
227 4 0.484743 0.179675 0.406524
402 2 0.458331 0.165851 0.348983
465 2 0.0612556 0.313147 0.423457
466 4 0.0509858 0.318572 0.389318
1069 4 0.302535 0.331278 0.362572
1068 2 0.326448 0.324929 0.336334
964 4 0.360977 0.325421 0.40805
344 4 0.403332 0.292769 0.394031
342 2 0.433565 0.299227 0.375467
343 4 0.463799 0.305686 0.356902
783 2 0.23549 0.349853 0.384667
784 4 0.208828 0.371888 0.394863
827 4 0.339987 0.350595 0.426161
785 4 0.262153 0.327817 0.374471
825 2 0.311813 0.333259 0.411803
200 4 0.33275 0.440833 0.340759
931 4 0.354104 0.443476 0.30969
1141 4 0.35236 0.486339 0.39405
1140 2 0.366509 0.495618 0.425894
263 4 0.105541 0.500678 0.416769
262 4 0.0848748 0.564322 0.389862
261 2 0.0952081 0.5325 0.403316
314 4 0.00302607 0.720614 0.336166
167 4 0.35995 0.996661 0.468068
906 2 0.387245 0.755047 0.355028
159 2 0.342337 0.70951 0.397394
161 4 0.365428 0.702449 0.370611
907 4 0.362073 0.738753 0.37506
1154 4 0.205972 0.793883 0.329528
1152 2 0.17222 0.806566 0.330085
298 4 0.24406 0.85127 0.423928
786 2 0.0645732 0.898365 0.414243
787 4 0.0696826 0.902489 0.378784
245 4 0.101529 0.891756 0.362623
1153 4 0.138467 0.819249 0.330642
297 2 0.226527 0.849273 0.39248
299 4 0.208993 0.847275 0.361031
841 4 0.217077 0.0762907 0.490072
1454 4 0.411292 0.0509909 0.459924
1452 2 0.392808 0.022019 0.448998
129 2 0.465024 0.0825842 0.471011
131 4 0.431465 0.0796818 0.458135
550 4 0.056852 0.168626 0.453444
987 2 0.243791 0.134581 0.419918
988 4 0.210399 0.142139 0.431246
926 4 0.276958 0.15324 0.469958
924 2 0.298253 0.148143 0.49861
130 4 0.498583 0.0854868 0.483887
226 4 0.449659 0.149651 0.461926
549 2 0.0465411 0.187989 0.424824
586 4 0.178052 0.229844 0.47366
587 4 0.185492 0.167957 0.43738
585 2 0.181772 0.198901 0.45552
180 2 0.390671 0.169582 0.46135
182 4 0.358328 0.167281 0.445568
181 4 0.423013 0.171882 0.477132
225 2 0.467201 0.164663 0.434225
467 4 0.0715259 0.307723 0.457597
1064 4 0.0742298 0.300072 0.495475
371 4 0.219866 0.296004 0.486962
54 2 0.325165 0.284113 0.487371
826 4 0.283641 0.315923 0.397444
965 4 0.385123 0.270169 0.44762
963 2 0.373051 0.297794 0.427835
56 4 0.341818 0.27173 0.457878
595 4 0.488764 0.937698 0.103242
1062 2 0.0994305 0.32574 0.49293
1022 4 0.137797 0.379511 0.472446
1020 2 0.160127 0.368628 0.446305
1063 4 0.124631 0.351408 0.490386
1021 4 0.182458 0.357745 0.420165
1396 4 0.289191 0.402703 0.488381
1395 2 0.298063 0.369756 0.500052
1116 2 0.497885 0.109896 0.122568
1164 2 0.29819 0.460425 0.502176
1453 4 0.374325 0.993047 0.438071
1142 4 0.380658 0.504897 0.45774
1076 4 0.400559 0.447131 0.471649
1074 2 0.369313 0.447239 0.48965
1416 2 0.15549 0.566522 0.496307
281 4 0.154484 0.935123 0.454217
1166 4 0.289793 0.487125 0.479439
1455 2 0.398517 0.521485 0.491687
279 2 0.158065 0.9661 0.436105
955 4 0.460785 0.529066 0.465045
1457 4 0.428132 0.529151 0.472593
954 2 0.493339 0.521444 0.451535
840 2 0.220418 0.040568 0.493695
1418 4 0.153556 0.598643 0.480031
582 2 0.300967 0.650304 0.44169
584 4 0.296625 0.616573 0.45368
818 4 0.489801 0.660134 0.444748
160 4 0.319246 0.716571 0.424178
583 4 0.305309 0.684035 0.4297
635 4 0.150034 0.922628 0.494281
817 4 0.495849 0.73193 0.447973
816 2 0.492825 0.696032 0.446361
775 4 0.497991 0.841673 0.442978
322 4 0.395386 0.859773 0.472552
788 4 0.0594639 0.894241 0.449701
1163 4 0.0647343 0.897167 0.485544
321 2 0.3659 0.861397 0.451855
1136 4 0.0224256 0.00315218 0.533289
547 4 0.0263336 0.418513 0.791299
326 4 0.113522 0.112255 0.549602
324 2 0.142993 0.132306 0.555063
325 4 0.172465 0.152357 0.560524
224 4 0.31968 0.160121 0.555244
925 4 0.319548 0.143046 0.527261
536 4 0.064856 0.190241 0.587403
222 2 0.30717 0.186034 0.576979
1214 4 0.424138 0.238641 0.538923
369 2 0.247595 0.306558 0.507459
394 4 0.309707 0.321145 0.549136
393 2 0.298471 0.308984 0.581177
959 4 0.341515 0.319143 0.523764
55 4 0.308513 0.296501 0.516866
370 4 0.275328 0.317112 0.527955
1212 2 0.392079 0.237702 0.522437
250 4 0.418139 0.247406 0.573674
249 2 0.4542 0.24728 0.573789
251 4 0.490261 0.247153 0.573903
1315 4 0.198826 0.422455 0.566566
1397 4 0.306935 0.336804 0.511726
957 2 0.364752 0.344388 0.534869
958 4 0.387985 0.369632 0.545975
1314 2 0.223054 0.43105 0.591855
1316 4 0.247282 0.439644 0.617144
610 4 0.240887 0.500581 0.5158
609 2 0.205268 0.500344 0.510174
1075 4 0.338065 0.447348 0.507651
829 4 0.0269725 0.575785 0.519073
970 4 0.0302002 0.543794 0.537078
1513 4 0.101194 0.502875 0.543006
1512 2 0.100774 0.525296 0.571247
687 2 0.355571 0.548832 0.559059
688 4 0.345613 0.542006 0.525079
62 4 0.465042 0.566512 0.568385
828 2 0.00769102 0.603123 0.505608
45 3 0.128205 0.603964 0.553832
44 3 0.134437 0.657596 0.548047
42 3 0.0907231 0.632633 0.527938
41 1 0.123232 0.629484 0.533762
1013 4 0.0982923 0.664343 0.541784
43 3 0.138988 0.62438 0.504682
1012 4 0.0432922 0.701963 0.569377
1011 2 0.0707922 0.683153 0.55558
1330 4 0.247822 0.685849 0.515661
1329 2 0.260988 0.718994 0.510326
210 2 0.321864 0.793074 0.523238
211 4 0.3446 0.81384 0.542006
1162 4 0.0707377 0.841731 0.531288
995 4 0.496171 0.645457 0.711141
1157 4 0.41552 0.91137 0.576536
1155 2 0.417317 0.916246 0.540851
1134 2 0.0255842 0.970193 0.547575
634 4 0.0985335 0.92086 0.544742
633 2 0.124284 0.921744 0.519512
842 4 0.223759 0.00484525 0.497318
701 4 0.210482 0.990264 0.556084
699 2 0.182661 0.972483 0.541584
166 4 0.303385 0.985432 0.51138
287 4 0.482635 0.428797 0.601259
1262 4 0.328809 0.9934 0.537187
315 2 0.0561735 0.0099294 0.664776
677 4 0.113998 0.00573858 0.649411
675 2 0.131015 0.0287944 0.627518
676 4 0.148031 0.0518502 0.605625
644 4 0.208539 0.0585783 0.592276
152 4 0.264304 0.0759625 0.666505
253 4 0.397561 0.0621772 0.633275
1199 4 0.390354 0.982288 0.639164
252 2 0.432026 0.0520623 0.636488
254 4 0.466489 0.0419482 0.639701
886 4 0.482407 0.0213591 0.61872
1161 2 0.0677359 0.869449 0.508416
643 4 0.205339 0.125179 0.564785
642 2 0.206939 0.0918785 0.57853
151 4 0.309405 0.108625 0.620672
150 2 0.286854 0.0922937 0.643588
154 4 0.400864 0.0952605 0.652444
155 4 0.343813 0.108977 0.610506
153 2 0.372338 0.102119 0.631475
1192 4 0.45079 0.112692 0.644946
436 4 0.48273 0.0985079 0.636595
1191 2 0.444862 0.147537 0.652096
534 2 0.0537152 0.205843 0.617946
535 4 0.0425741 0.221446 0.648489
223 4 0.294661 0.211946 0.598715
1196 4 0.287793 0.236352 0.621877
1194 2 0.290447 0.24959 0.655315
960 2 0.401491 0.224186 0.674959
1193 4 0.438933 0.182381 0.659247
660 2 0.0399633 0.292335 0.642405
662 4 0.0600028 0.262706 0.637829
661 4 0.019924 0.321965 0.646981
395 4 0.287235 0.296823 0.613213
961 4 0.391325 0.258063 0.667926
655 4 0.0497547 0.341201 0.661367
654 2 0.0203266 0.361711 0.657655
29 3 0.40194 0.926132 0.984301
272 4 0.0272789 0.47165 0.625973
1514 4 0.100353 0.547717 0.599487
1291 4 0.164932 0.503128 0.596987
1290 2 0.184363 0.533201 0.601288
1292 4 0.203793 0.563274 0.60559
689 4 0.365529 0.555658 0.593038
60 2 0.455436 0.553744 0.600713
61 4 0.445829 0.540976 0.633041
1308 2 0.0523998 0.624898 0.65988
1309 4 0.04342 0.592531 0.646758
136 4 0.14919 0.630595 0.576178
135 2 0.180572 0.631363 0.593927
137 4 0.211954 0.632131 0.611675
607 4 0.217644 0.596619 0.605462
606 2 0.251263 0.607568 0.598369
608 4 0.284881 0.618517 0.591276
1130 4 0.285666 0.620121 0.626758
1128 2 0.320853 0.626321 0.63164
1129 4 0.35604 0.632521 0.636522
994 4 0.475034 0.604991 0.655307
259 4 0.252265 0.749612 0.604069
258 2 0.216437 0.75344 0.605528
260 4 0.18061 0.757268 0.606988
1236 2 0.456472 0.737148 0.642494
1237 4 0.464806 0.719821 0.673002
900 2 0.0368449 0.779073 0.664662
901 4 0.0708348 0.767214 0.662545
33 3 0.0990308 0.779849 0.640981
34 3 0.151829 0.789869 0.651773
1097 4 0.0862916 0.817432 0.643419
1001 4 0.231334 0.822328 0.672831
117 2 0.306502 0.790576 0.649934
119 4 0.308879 0.762968 0.626857
1238 4 0.448138 0.754476 0.611987
1096 4 0.0671463 0.883798 0.622665
1095 2 0.0767187 0.850615 0.633042
335 4 0.295425 0.865848 0.634094
333 2 0.316862 0.893424 0.625126
334 4 0.3383 0.920999 0.616159
316 4 0.0810221 0.988725 0.649501
1260 2 0.328335 0.968211 0.562989
1198 4 0.362425 0.988441 0.705374
1261 4 0.32786 0.943023 0.58879
1197 2 0.376389 0.985364 0.672269
458 4 0.452579 0.00055443 0.973661
1015 4 0.0332311 0.02347 0.713451
1014 2 0.0261885 0.022388 0.748801
317 4 0.0313247 0.0311336 0.680052
464 4 0.0982911 0.994043 0.745963
570 2 0.0613271 0.216504 0.694148
571 4 0.0937312 0.202119 0.700739
572 4 0.028923 0.230889 0.687556
277 4 0.369585 0.958331 0.92545
623 4 0.117042 0.218376 0.726749
962 4 0.411657 0.19031 0.681993
1268 4 0.140501 0.349928 0.723916
1195 4 0.293102 0.262828 0.688754
1492 4 0.496336 0.283085 0.701811
460 4 0.0136248 0.478421 0.727053
271 4 0.0146828 0.495833 0.692743
459 2 0.0431751 0.464152 0.742007
270 2 0.0209807 0.483741 0.659358
461 4 0.0727253 0.449883 0.75696
1204 4 0.0633241 0.581818 0.675006
1205 4 0.102661 0.54121 0.719785
1203 2 0.0829925 0.561514 0.697396
1040 4 0.261966 0.524748 0.702268
1038 2 0.262074 0.542862 0.73345
934 4 0.361169 0.527559 0.74004
1310 4 0.0613795 0.657264 0.673003
589 4 0.000770874 0.677692 0.719821
993 2 0.485603 0.625224 0.683224
238 4 0.453937 0.715336 0.733928
237 2 0.468845 0.683108 0.740214
32 3 0.113331 0.823624 0.669575
35 3 0.118118 0.774726 0.69156
31 1 0.120588 0.791805 0.663614
710 4 0.133497 0.772813 0.72531
999 2 0.229273 0.823835 0.708802
1000 4 0.227213 0.825342 0.744772
118 4 0.304125 0.818184 0.673011
680 4 0.338379 0.809888 0.691532
678 2 0.359165 0.805818 0.720718
679 4 0.379951 0.801748 0.749904
1211 4 0.478275 0.896696 0.672318
1165 4 0.30659 0.433725 0.524913
1016 4 0.0191466 0.0213062 0.784151
462 2 0.131945 0.986952 0.756805
1390 4 0.17891 0.014493 0.766049
1389 2 0.191589 0.0187786 0.799534
996 2 0.308588 0.0638372 0.827462
997 4 0.335598 0.0399677 0.828522
409 4 0.126341 0.091194 0.821552
741 2 0.102818 0.137301 0.80391
742 4 0.0959522 0.110702 0.827273
1384 4 0.266994 0.0825777 0.751833
1383 2 0.28726 0.110657 0.761897
1385 4 0.307525 0.138736 0.771961
470 4 0.265608 0.111693 0.84945
304 4 0.476364 0.108408 0.8115
743 4 0.109684 0.163899 0.780548
621 2 0.102569 0.227464 0.758504
89 4 0.119573 0.299641 0.846756
622 4 0.0880964 0.236553 0.790258
591 2 0.311693 0.21379 0.760262
592 4 0.280804 0.224055 0.775783
593 4 0.342582 0.203524 0.744741
1424 4 0.395739 0.206836 0.812147
1422 2 0.419019 0.217565 0.786783
1423 4 0.442299 0.228294 0.76142
1201 4 0.36234 0.777615 0.989504
1266 2 0.136778 0.355892 0.759285
1267 4 0.133055 0.361855 0.794654
947 4 0.474013 0.33623 0.823845
294 2 0.161142 0.490105 0.794053
296 4 0.15233 0.470627 0.823094
565 4 0.170821 0.43804 0.830709
564 2 0.206341 0.432001 0.832217
566 4 0.241861 0.425963 0.833725
1107 2 0.472948 0.473147 0.805764
1108 4 0.487633 0.452768 0.77989
1109 4 0.458264 0.493525 0.831638
295 4 0.169954 0.509583 0.765012
1437 2 0.116987 0.556546 0.788735
1438 4 0.144297 0.537287 0.775181
1082 4 0.251909 0.594474 0.770701
1039 4 0.262181 0.560976 0.764631
935 4 0.351022 0.574271 0.794046
933 2 0.356096 0.550915 0.767043
767 4 0.022161 0.629301 0.774112
765 2 0.0104996 0.657377 0.793506
1439 4 0.0896783 0.575805 0.80229
76 4 0.102905 0.670973 0.774151
1080 2 0.225234 0.615144 0.783416
1081 4 0.198561 0.635814 0.796131
1481 4 0.383123 0.573059 0.816788
239 4 0.483753 0.65088 0.7465
766 4 0.998838 0.685453 0.8129
191 4 0.00339473 0.71965 0.813096
75 2 0.0789598 0.697229 0.780286
77 4 0.0550146 0.723485 0.786421
398 4 0.162279 0.729972 0.797459
396 2 0.170534 0.717174 0.830147
235 4 0.306668 0.669876 0.795529
234 2 0.335935 0.684051 0.811114
236 4 0.365202 0.698225 0.826698
709 4 0.0816591 0.774375 0.77543
708 2 0.107578 0.773594 0.75037
110 4 0.0879078 0.835072 0.797929
434 4 0.195913 0.82084 0.758738
432 2 0.184923 0.787289 0.766081
433 4 0.173933 0.753737 0.773423
346 4 0.43386 0.829411 0.773612
345 2 0.458259 0.806334 0.78675
347 4 0.482659 0.783259 0.799887
1189 4 0.450041 0.863481 0.776969
1188 2 0.484152 0.874835 0.774142
1079 4 0.306185 0.228835 0.995619
463 4 0.165599 0.979861 0.767646
1247 4 0.222545 0.97159 0.811352
1245 2 0.241037 0.962573 0.781735
1246 4 0.259528 0.953557 0.752118
426 2 0.255032 0.0221125 0.862675
1391 4 0.204268 0.0230634 0.83302
428 4 0.231854 0.0427429 0.844301
998 4 0.281578 0.0877067 0.826402
427 4 0.27821 0.00148245 0.881048
408 2 0.153597 0.0943754 0.844949
469 4 0.208636 0.0860757 0.885501
468 2 0.237122 0.0988846 0.867476
410 4 0.180852 0.0975571 0.868345
59 4 0.300194 0.167146 0.911375
385 4 0.444549 0.0965513 0.89828
303 2 0.452936 0.109425 0.838895
305 4 0.429508 0.110441 0.86629
790 4 0.261194 0.226337 0.851483
486 2 0.00740011 0.286433 0.840965
1085 4 0.0420891 0.290411 0.893457
487 4 0.0109212 0.28908 0.876756
87 2 0.14499 0.274107 0.8452
88 4 0.170407 0.248573 0.843644
789 2 0.281278 0.25474 0.860984
791 4 0.301362 0.283144 0.870486
1006 4 0.289242 0.298775 0.901564
246 2 0.487418 0.301701 0.899015
1135 4 0.0287426 0.937233 0.561861
264 2 0.0921035 0.377001 0.890338
266 4 0.0635446 0.35511 0.887983
821 4 0.0213787 0.37778 0.926913
265 4 0.120663 0.398893 0.892694
247 4 0.461698 0.322957 0.912695
745 4 0.495047 0.390323 0.865697
242 4 0.17614 0.423469 0.916804
240 2 0.142357 0.43409 0.923606
241 4 0.108572 0.444711 0.930409
107 4 0.312141 0.43989 0.868226
106 4 0.264337 0.448825 0.814966
105 2 0.288239 0.444357 0.841596
146 4 0.320487 0.453709 0.902123
853 4 0.428527 0.462861 0.927426
1027 4 0.412482 0.491304 0.91476
1151 4 0.0392637 0.494259 0.830334
1149 2 0.0357645 0.497085 0.866114
183 2 0.0840493 0.576785 0.86865
184 4 0.0928586 0.567282 0.902303
185 4 0.0752398 0.586289 0.834998
1480 4 0.407606 0.595315 0.880873
1026 2 0.406267 0.524938 0.903335
1028 4 0.400051 0.558573 0.89191
1231 4 0.0879782 0.673011 0.895561
1479 2 0.395365 0.584187 0.848831
575 4 0.47643 0.673603 0.847626
1060 4 0.0621485 0.742378 0.839111
1059 2 0.0620018 0.711026 0.856926
1061 4 0.0618547 0.679673 0.874742
397 4 0.178789 0.704377 0.862834
1405 4 0.323032 0.685182 0.929299
82 4 0.395937 0.694044 0.838482
81 2 0.387598 0.717392 0.86467
214 4 0.406364 0.764691 0.884449
574 4 0.460756 0.702889 0.911643
573 2 0.468593 0.688245 0.879634
109 4 0.0959485 0.790234 0.853845
108 2 0.0919282 0.812653 0.825887
800 4 0.286702 0.830244 0.878755
83 4 0.379261 0.740739 0.890857
798 2 0.317875 0.815112 0.88874
337 4 0.464197 0.739199 0.882611
338 4 0.464378 0.787366 0.828932
336 2 0.464288 0.763283 0.855771
1421 4 0.47108 0.832694 0.905702
1419 2 0.487907 0.862356 0.893979
1051 4 0.464711 0.860631 0.93201
340 4 0.0356738 0.933069 0.887706
339 2 0.0406072 0.927743 0.923029
973 4 0.493501 0.220717 0.538544
384 2 0.473117 0.0877232 0.918439
878 4 0.276272 0.145239 0.931194
876 2 0.276127 0.12111 0.957993
877 4 0.275983 0.0969805 0.984792
193 4 0.352164 0.107717 0.990368
951 2 0.0477162 0.221096 0.99074
952 4 0.0134057 0.211266 0.985586
1263 2 0.248326 0.222542 0.987692
1265 4 0.218138 0.242028 0.99075
57 2 0.321463 0.190887 0.928239
1264 4 0.278515 0.203056 0.984634
58 4 0.342732 0.214627 0.945103
301 4 0.374001 0.225532 0.955101
1084 4 0.0688253 0.297231 0.960093
1083 2 0.0554568 0.293821 0.926775
815 4 0.109946 0.297367 0.968302
1005 2 0.317218 0.309978 0.921368
1007 4 0.345195 0.321181 0.941172
302 4 0.372117 0.296828 0.944376
300 2 0.373059 0.26118 0.949738
616 4 0.478255 0.243236 0.980843
1326 2 0.457048 0.344514 0.970356
1328 4 0.476321 0.348421 0.000583214
1327 4 0.437775 0.340607 0.940129
820 4 0.0532692 0.406663 0.984796
819 2 0.0373241 0.392221 0.955854
1517 4 0.199459 0.409977 0.942717
1333 4 0.0774878 0.465845 0.938395
1516 4 0.225255 0.448536 0.997938
1515 2 0.212357 0.429256 0.970328
145 4 0.32714 0.445991 0.973522
144 2 0.323814 0.449851 0.937823
854 4 0.464137 0.452675 0.989312
852 2 0.446332 0.457768 0.958369
1334 4 0.0852286 0.533217 0.913843
1332 2 0.0813582 0.499531 0.926119
890 4 0.0384451 0.608014 0.00387248
1241 4 0.0661873 0.583094 0.93838
1240 4 0.0156943 0.623731 0.970013
1239 2 0.0409405 0.603413 0.954196
1406 4 0.391244 0.6819 0.952491
1355 4 0.482594 0.599443 0.921483
1232 4 0.117938 0.700343 0.955201
1230 2 0.102958 0.686677 0.925381
941 4 0.155701 0.706876 0.94756
939 2 0.159984 0.742662 0.948728
1404 2 0.357138 0.683541 0.940895
67 4 0.0175412 0.789862 0.999814
940 4 0.164267 0.778449 0.949896
179 4 0.130731 0.81676 0.998128
1436 4 0.24785 0.781217 0.934318
1435 4 0.297439 0.798111 0.983887
1434 2 0.272644 0.789664 0.959103
1177 4 0.398818 0.790054 0.988227
213 2 0.409809 0.775765 0.918595
1176 2 0.416005 0.821601 0.991356
215 4 0.413253 0.786838 0.95274
178 4 0.138065 0.866207 0.946139
177 2 0.134398 0.841484 0.972134
911 4 0.31493 0.900651 0.955515
910 4 0.294478 0.833562 0.972322
278 4 0.334411 0.89537 0.924882
909 2 0.304704 0.867106 0.963919
799 4 0.349047 0.799979 0.898724
1050 2 0.438699 0.880922 0.946573
1052 4 0.412688 0.901213 0.961136
341 4 0.0455402 0.922416 0.958351
276 2 0.351998 0.926851 0.925166
457 4 0.397735 0.977922 0.932654
456 2 0.425157 0.989238 0.953157
969 2 0.00530395 0.540116 0.562906
598 4 0.0118211 0.923588 0.528177
902 4 0.00285513 0.790932 0.666777
488 4 0.0038789 0.283786 0.805173
1150 4 0.0322657 0.49991 0.901894
953 4 0.0820269 0.230926 0.995895
1403 4 0.325372 0.370033 0.99933
1178 4 0.433192 0.853149 0.994484
1156 4 0.419114 0.921121 0.505166
1213 4 0.360021 0.236762 0.505951
611 4 0.169649 0.500106 0.504548
1417 4 0.157425 0.5344 0.512583
1456 4 0.368901 0.51382 0.510781
1331 4 0.274153 0.752138 0.504991
212 4 0.299128 0.772308 0.504471
700 4 0.15484 0.954701 0.527083
138 2 0.993975 0.0109556 0.0741074
7 3 0.571849 0.149692 0.0492082
6 1 0.549347 0.132213 0.0322139
8 3 0.551944 0.0999759 0.0408113
10 3 0.554968 0.135721 4.38492e-05
9 3 0.518813 0.143631 0.0397812
209 4 0.968453 0.174387 0.0332542
1100 4 0.963408 0.163434 0.00126
207 2 0.97039 0.139459 0.0420156
208 4 0.972327 0.104532 0.0507774
1234 4 0.673728 0.249259 0.0180505
376 4 0.746991 0.249197 0.0597978
1496 4 0.707465 0.240164 0.0306582
1494 2 0.723276 0.216294 0.00873477
1348 4 0.757349 0.24839 0.024767
375 2 0.718033 0.267682 0.0707583
1347 2 0.786977 0.264936 0.012568
1349 4 0.816605 0.281483 0.000369085
1125 2 0.879553 0.262792 0.00896511
1127 4 0.898198 0.286094 0.0292065
1147 4 0.911692 0.284836 0.0614861
1146 2 0.930045 0.312464 0.0473351
1433 4 0.592677 0.416058 0.0418735
1431 2 0.595425 0.381325 0.0325742
1432 4 0.598172 0.346592 0.0232749
382 4 0.834304 0.36171 0.0655599
1148 4 0.948399 0.340092 0.0331841
220 4 0.533547 0.440907 0.0910273
96 2 0.599498 0.515542 0.0589319
98 4 0.58928 0.537473 0.0321924
1346 4 0.584294 0.57154 0.0400649
768 2 0.674478 0.505661 0.0220986
769 4 0.69659 0.511776 0.0499208
554 4 0.689702 0.5251 0.0829549
448 4 0.981398 0.740591 0.361498
1344 2 0.604211 0.601599 0.0404607
1345 4 0.624128 0.631659 0.0408562
629 4 0.778074 0.649117 0.0275746
627 2 0.806485 0.646882 0.00547822
441 2 0.825814 0.73832 0.067
442 4 0.811928 0.74788 0.0351224
412 4 0.806399 0.775033 0.0120761
1300 4 0.598431 0.917106 0.0403851
1299 2 0.586919 0.898527 0.0117019
649 4 0.587206 0.950139 0.053313
648 2 0.587236 0.938421 0.0874173
991 4 0.694407 0.859508 0.0100398
992 4 0.66127 0.884276 0.0691172
990 2 0.677838 0.871892 0.0395787
558 2 0.508913 0.7996 0.258766
267 2 0.76057 0.929325 0.0693775
268 4 0.778195 0.92867 0.0379239
1442 4 0.801734 0.00147182 0.105784
1440 2 0.833049 0.0105727 0.121177
1441 4 0.864364 0.0196738 0.13657
740 4 0.900298 0.0246984 0.140657
738 2 0.926327 0.999741 0.140695
563 4 0.895291 0.913319 0.475632
1118 4 0.504688 0.143168 0.134696
692 4 0.521379 0.152395 0.104981
1462 4 0.639824 0.140673 0.0926006
1463 4 0.604385 0.0799026 0.108495
1461 2 0.622105 0.110288 0.100548
1045 4 0.942417 0.106467 0.123867
1044 2 0.931896 0.113189 0.157698
690 2 0.525179 0.188248 0.105744
691 4 0.52898 0.2241 0.106506
529 4 0.620729 0.247804 0.11877
528 2 0.653764 0.262034 0.116203
101 4 0.821859 0.176162 0.113666
99 2 0.830576 0.21004 0.122426
100 4 0.839293 0.243917 0.131186
1035 2 0.994411 0.255617 0.137062
986 4 0.525562 0.253126 0.129532
984 2 0.55983 0.26138 0.121915
985 4 0.594097 0.269633 0.114297
530 4 0.686799 0.276264 0.113637
377 4 0.689074 0.286168 0.081718
1504 4 0.82575 0.276187 0.134013
1503 2 0.831294 0.300674 0.108128
1505 4 0.836838 0.325162 0.0822422
1036 4 0.982144 0.2679 0.105454
229 4 0.932437 0.307469 0.112597
228 2 0.917497 0.290936 0.14095
833 4 0.58692 0.40432 0.151792
804 2 0.70181 0.409747 0.145515
805 4 0.715691 0.385542 0.168359
732 2 0.777764 0.414589 0.163785
381 2 0.845394 0.382122 0.093142
383 4 0.856485 0.402533 0.120724
221 4 0.551048 0.395664 0.144398
219 2 0.542297 0.418285 0.117713
97 4 0.609717 0.49361 0.0856712
870 2 0.652535 0.47909 0.144803
871 4 0.680432 0.472595 0.122894
806 4 0.68793 0.433951 0.12267
1182 2 0.789416 0.477542 0.109424
1183 4 0.81316 0.457886 0.128144
734 4 0.809374 0.423041 0.148624
1184 4 0.765673 0.497197 0.0907061
485 4 0.842721 0.445744 0.153175
552 2 0.723094 0.525343 0.096568
553 4 0.756486 0.525585 0.110181
567 2 0.790503 0.57503 0.135742
568 4 0.806494 0.557224 0.162717
569 4 0.774512 0.592836 0.108767
809 4 0.840244 0.572841 0.171276