ITEM: TIMESTEP
1516500
ITEM: NUMBER OF ATOMS
1520
ITEM: BOX BOUNDS pp pp pp
-6.9326749999999997e+00 6.9326749999999997e+00
-6.9326749999999997e+00 6.9326749999999997e+00
-6.9326749999999997e+00 6.9326749999999997e+00
ITEM: ATOMS id type xs ys zs
187 4 0.497047 0.0286021 0.0394977
1120 4 0.334425 0.0563953 0.091013
486 2 0.0500907 0.21523 0.0103883
488 4 0.0418483 0.249965 0.00528783
487 4 0.0583333 0.180496 0.0154882
1277 4 0.490538 0.628771 0.497603
529 4 0.15888 0.230389 0.00499242
799 4 0.224668 0.211545 0.0451374
206 4 0.193563 0.217341 0.0529384
798 2 0.257705 0.215752 0.03131
800 4 0.290744 0.219958 0.0174825
846 2 0.0820483 0.296373 0.0164399
656 4 0.481299 0.20356 0.263528
848 4 0.112034 0.306945 0.033456
371 4 0.492926 0.747664 0.299442
344 4 0.313844 0.246131 0.0253164
343 4 0.305267 0.316278 0.0109122
342 2 0.309555 0.281205 0.018114
1261 4 0.403095 0.370462 0.0575271
673 4 0.303922 0.394987 0.025412
672 2 0.321018 0.363911 0.0188994
875 4 0.320819 0.390732 0.0572978
674 4 0.338114 0.332835 0.0123868
1260 2 0.434303 0.354217 0.065439
448 4 0.125831 0.470536 0.0355407
447 2 0.123445 0.506212 0.0402249
449 4 0.121059 0.541888 0.0449089
1194 2 0.307045 0.561759 0.0313671
1195 4 0.331464 0.541471 0.0484705
464 4 0.363708 0.528555 0.0609074
1203 2 0.000718006 0.286068 0.158095
1196 4 0.282626 0.582048 0.0142633
234 2 0.368403 0.652807 0.0862883
235 4 0.335753 0.659895 0.0727177
1386 2 0.183252 0.70788 0.0743717
1387 4 0.192098 0.729562 0.0469473
1010 4 0.0343632 0.740618 0.312517
1178 4 0.0166939 0.834048 0.0130017
547 4 0.208154 0.808104 0.0611522
1358 4 0.497518 0.7476 0.221495
546 2 0.225255 0.800209 0.0304005
700 4 0.413349 0.842679 0.0904007
1438 4 0.0296633 0.874258 0.0833554
963 2 0.247599 0.923706 0.0898462
964 4 0.238725 0.902154 0.0623296
613 4 0.303381 0.956142 0.0985604
1394 4 0.474909 0.00418482 0.0527662
13 3 0.0654164 0.0202153 0.135725
11 1 0.0480663 0.0152419 0.163906
12 3 0.0176838 0.0280408 0.160195
1463 4 0.0911828 0.0354052 0.166504
1462 4 0.123508 0.0782267 0.118307
1461 2 0.107346 0.0568159 0.142406
1054 4 0.195364 0.0221263 0.115404
1053 2 0.21528 0.993118 0.123297
1121 4 0.299269 0.0924114 0.142671
614 4 0.344633 0.00393643 0.133424
256 4 0.359494 0.0364778 0.129188
255 2 0.382371 0.0399796 0.156842
410 4 0.481113 0.0349613 0.151554
408 2 0.461472 0.06427 0.159016
1392 2 0.481582 0.00863133 0.0879242
1393 4 0.488253 0.0130766 0.123083
956 4 0.156683 0.0954481 0.100867
955 4 0.212341 0.0935626 0.146696
954 2 0.184512 0.0945052 0.123781
1192 4 0.312743 0.134761 0.0846669
1119 2 0.316848 0.0744036 0.116842
1346 4 0.380501 0.137809 0.137681
1345 4 0.446014 0.108118 0.132374
1344 2 0.413258 0.122963 0.135027
409 4 0.44183 0.0935773 0.166477
1245 2 0.0213156 0.216019 0.169946
1459 4 0.387048 0.203979 0.000855659
205 4 0.161386 0.225366 0.116984
204 2 0.177475 0.221353 0.084961
1191 2 0.316079 0.170369 0.0800497
1193 4 0.319414 0.205977 0.0754306
1205 4 0.0252198 0.26058 0.150991
1511 4 0.191361 0.334683 0.166658
9 3 0.180968 0.403582 0.117865
873 2 0.329076 0.406464 0.0886777
367 4 0.353433 0.390075 0.122679
366 2 0.37138 0.408082 0.148256
1262 4 0.46551 0.337972 0.0733506
368 4 0.389327 0.426088 0.173831
514 4 0.452176 0.33636 0.116273
513 2 0.46181 0.358297 0.143224
1278 2 0.142347 0.513979 0.144619
1280 4 0.157006 0.481048 0.145647
8 3 0.169267 0.457105 0.116159
6 1 0.192707 0.434398 0.123566
767 4 0.235202 0.437597 0.171321
1174 4 0.235518 0.450712 0.134422
7 3 0.219141 0.439559 0.104194
1173 2 0.249741 0.483848 0.133986
874 4 0.337335 0.422194 0.120059
1279 4 0.127687 0.546911 0.14359
1175 4 0.263962 0.516984 0.133551
463 4 0.406039 0.516209 0.117981
1022 4 0.420671 0.50638 0.151404
462 2 0.384874 0.522382 0.0894434
454 4 0.427555 0.57212 0.141432
970 4 0.0170458 0.595289 0.122716
969 2 0.012646 0.616705 0.151393
400 4 0.0223863 0.667998 0.167236
236 4 0.401054 0.64572 0.0998587
455 4 0.454535 0.621721 0.0965603
453 2 0.441046 0.59692 0.118996
125 4 0.0217669 0.721081 0.108744
1388 4 0.174406 0.686199 0.101796
1314 2 0.231178 0.69284 0.14251
1316 4 0.199132 0.682801 0.129368
1315 4 0.263224 0.702879 0.155651
123 2 0.0462796 0.738627 0.128536
124 4 0.0707925 0.756173 0.148328
1153 4 0.195777 0.799853 0.0986923
1152 2 0.198118 0.813556 0.131967
1154 4 0.200459 0.82726 0.16524
41 1 0.331971 0.797944 0.170047
43 3 0.299121 0.793436 0.174566
45 3 0.338359 0.829806 0.16527
42 3 0.341584 0.78075 0.143351
1294 4 0.369305 0.770295 0.168852
1293 2 0.40282 0.775961 0.156807
701 4 0.458432 0.791576 0.114018
699 2 0.43589 0.817128 0.102209
1295 4 0.436335 0.781628 0.144762
1219 4 0.318554 0.688507 0.486461
15 3 0.0455789 0.983063 0.170004
163 4 0.0102533 0.992242 0.156676
965 4 0.256474 0.945257 0.117362
779 4 0.248087 0.942826 0.162651
1055 4 0.235194 0.964111 0.13119
612 2 0.324007 0.980039 0.115992
908 4 0.466547 0.954702 0.125533
14 3 0.0632142 0.0305775 0.189504
257 4 0.405249 0.0434817 0.184497
59 4 0.394461 0.0573604 0.21564
82 4 0.0201802 0.165453 0.214106
222 2 0.159188 0.166804 0.179465
223 4 0.165057 0.134583 0.194558
626 4 0.190595 0.131264 0.222851
625 4 0.245042 0.105064 0.26223
624 2 0.217819 0.118164 0.242541
1094 4 0.324644 0.167783 0.219914
1093 4 0.372611 0.138267 0.174862
57 2 0.399537 0.0911355 0.227212
1092 2 0.348628 0.153025 0.197389
1247 4 0.0484065 0.197494 0.184889
1442 4 0.0498649 0.217892 0.21469
1440 2 0.0497309 0.243362 0.240219
224 4 0.15332 0.199024 0.164373
1445 4 0.254641 0.236137 0.221097
1443 2 0.270555 0.206243 0.20871
1444 4 0.28647 0.176347 0.196323
806 4 0.354607 0.18274 0.228194
1510 4 0.162625 0.269214 0.176124
1509 2 0.176993 0.301948 0.171391
1436 4 0.244136 0.262151 0.242342
1435 4 0.179273 0.256095 0.211393
1434 2 0.211705 0.259122 0.226868
727 4 0.0826611 0.412892 0.184273
726 2 0.0757672 0.380615 0.1988
728 4 0.0688719 0.348337 0.213327
1027 4 0.136861 0.399766 0.22205
766 4 0.282439 0.385847 0.18842
515 4 0.471444 0.380235 0.170175
532 4 0.0510267 0.429777 0.19893
531 2 0.0383348 0.460822 0.185681
533 4 0.0256436 0.491868 0.172432
1228 4 0.00278292 0.411449 0.213185
1028 4 0.173892 0.44893 0.184458
1026 2 0.155376 0.424348 0.203254
10 3 0.201621 0.437351 0.155041
765 2 0.258821 0.411722 0.179871
1519 4 0.307905 0.444308 0.221448
1518 2 0.337814 0.457688 0.206387
1091 4 0.393469 0.448514 0.206925
1520 4 0.367724 0.471067 0.191327
1089 2 0.429313 0.444562 0.207047
1090 4 0.465157 0.44061 0.207168
134 4 0.482458 0.444362 0.179037
1265 4 0.038795 0.526963 0.163537
1263 2 0.0689291 0.546767 0.163154
872 4 0.108728 0.572929 0.200301
1264 4 0.0990639 0.56657 0.162772
1179 2 0.398845 0.580221 0.235506
1180 4 0.391708 0.544874 0.235215
1020 2 0.415174 0.528745 0.179153
1021 4 0.409677 0.551109 0.206901
971 4 0.00824631 0.638122 0.18007
870 2 0.12512 0.584051 0.230435
314 4 0.384244 0.644664 0.232252
312 2 0.361577 0.662057 0.210251
1181 4 0.405981 0.615568 0.235799
1405 4 0.475373 0.602592 0.233655
401 4 0.0139175 0.694834 0.233642
399 2 0.0181521 0.681416 0.200439
494 4 0.0123392 0.729644 0.234512
1141 4 0.0835247 0.700015 0.253336
1140 2 0.100702 0.731306 0.248219
96 2 0.313392 0.726987 0.197202
98 4 0.311883 0.692582 0.207899
313 4 0.338909 0.67945 0.18825
1142 4 0.117879 0.762598 0.243101
465 2 0.171209 0.793086 0.217413
467 4 0.151184 0.76994 0.236482
466 4 0.191235 0.816233 0.198344
862 4 0.228522 0.803848 0.223457
861 2 0.255154 0.785629 0.207357
97 4 0.314901 0.761393 0.186505
863 4 0.281786 0.76741 0.191256
44 3 0.348809 0.786797 0.196733
1073 4 0.135701 0.911279 0.165457
1376 4 0.0113802 0.927196 0.248227
1071 2 0.144728 0.902884 0.199346
1072 4 0.153753 0.89449 0.233236
777 2 0.261254 0.951524 0.195077
778 4 0.274421 0.960222 0.227501
1490 4 0.389539 0.950341 0.216826
1489 4 0.426838 0.945953 0.155254
1488 2 0.408188 0.948147 0.18604
844 4 0.177992 0.113955 0.302367
137 4 0.31559 0.107365 0.281441
135 2 0.320319 0.114676 0.316436
58 4 0.404615 0.12491 0.238785
805 4 0.382532 0.219857 0.283368
804 2 0.36857 0.201298 0.255781
654 2 0.468732 0.236339 0.25528
17 3 0.440127 0.195617 0.345545
1441 4 0.0495969 0.268832 0.265746
574 4 0.0434545 0.293496 0.29015
573 2 0.0169362 0.310811 0.272906
209 4 0.433682 0.294194 0.333854
655 4 0.456165 0.269118 0.247032
20 3 0.440727 0.248693 0.336606
787 4 0.123893 0.402103 0.328152
233 4 0.202876 0.402317 0.289931
508 4 0.236258 0.400558 0.319275
231 2 0.172703 0.41667 0.303495
232 4 0.142529 0.431022 0.317058
943 4 0.298321 0.470205 0.328517
1482 2 0.386116 0.414098 0.320152
258 2 0.405071 0.482253 0.264941
260 4 0.410764 0.446688 0.263176
1484 4 0.392129 0.434676 0.291156
577 4 0.190153 0.535221 0.262277
576 2 0.213635 0.558973 0.275874
942 2 0.319375 0.497986 0.319276
259 4 0.399379 0.517819 0.266704
944 4 0.34043 0.525765 0.310036
1513 4 0.15784 0.624273 0.279525
871 4 0.141512 0.595174 0.260568
1512 2 0.175662 0.653776 0.268927
578 4 0.237117 0.582725 0.289471
501 2 0.463803 0.636545 0.312446
503 4 0.452406 0.668692 0.300738
1008 2 0.033273 0.704589 0.311442
1514 4 0.193484 0.68328 0.258329
1237 4 0.404433 0.741078 0.317303
1324 4 0.222663 0.793263 0.278
1323 2 0.202228 0.809628 0.302799
544 4 0.328191 0.830366 0.316857
1325 4 0.181793 0.825992 0.327598
929 4 0.385661 0.871057 0.293822
927 2 0.417795 0.856494 0.301287
928 4 0.449929 0.84193 0.308752
1375 4 0.0728509 0.916006 0.284255
1374 2 0.0421157 0.9216 0.26624
1351 4 0.0740857 0.929463 0.322843
1506 2 0.106619 0.955088 0.290286
1508 4 0.142461 0.954539 0.286363
1507 4 0.0707755 0.955634 0.294209
1330 4 0.00425482 0.0275265 0.371303
988 4 0.00586207 0.181294 0.419871
845 4 0.218705 0.12482 0.360899
843 2 0.198349 0.119387 0.331633
136 4 0.325048 0.121988 0.35143
277 4 0.482393 0.104347 0.349955
987 2 0.0410242 0.184974 0.412762
989 4 0.0761865 0.188655 0.405653
1145 4 0.091013 0.216592 0.377991
1143 2 0.11849 0.23652 0.390168
18 3 0.415719 0.228993 0.380597
19 3 0.470399 0.227766 0.376985
16 1 0.441743 0.225508 0.359849
1144 4 0.145967 0.256448 0.402346
1102 4 0.201404 0.347195 0.426687
991 4 0.308633 0.270214 0.428333
207 2 0.402696 0.307146 0.346988
208 4 0.371709 0.320099 0.360123
992 4 0.356726 0.31172 0.394184
990 2 0.33268 0.290967 0.411259
786 2 0.111073 0.405183 0.361717
788 4 0.0982537 0.408264 0.395281
507 2 0.250383 0.391379 0.35116
509 4 0.264508 0.382198 0.383045
349 4 0.328855 0.388114 0.40022
348 2 0.358418 0.369681 0.39091
350 4 0.387982 0.351249 0.3816
1483 4 0.380102 0.39352 0.349149
288 2 0.453231 0.382676 0.38518
290 4 0.42049 0.371956 0.395834
289 4 0.485974 0.393396 0.374525
241 4 0.00406073 0.482742 0.37554
961 4 0.262836 0.494493 0.353603
1149 2 0.313514 0.432429 0.371983
1150 4 0.298503 0.409499 0.39542
1151 4 0.328525 0.455359 0.348546
1491 2 0.0067653 0.543593 0.353969
960 2 0.244803 0.525043 0.360083
962 4 0.22677 0.555591 0.366564
1334 4 0.186564 0.530152 0.429267
715 4 0.405251 0.547177 0.398199
714 2 0.370431 0.540119 0.404378
1493 4 0.0248898 0.573843 0.346428
784 4 0.110441 0.638288 0.371711
783 2 0.126706 0.632252 0.403325
502 4 0.4752 0.604398 0.324153
1009 4 0.0321835 0.66856 0.310367
104 4 0.224145 0.818994 0.367737
491 4 0.280989 0.794639 0.382132
545 4 0.288136 0.78045 0.35011
543 2 0.308163 0.805408 0.333483
745 4 0.407876 0.797825 0.433792
73 4 0.426322 0.997132 0.477534
1238 4 0.434185 0.800633 0.345045
1236 2 0.419309 0.770855 0.331175
419 4 0.42676 0.833495 0.35484
417 2 0.45402 0.82483 0.376797
985 4 0.165237 0.887165 0.401961
103 4 0.177651 0.855003 0.40949
102 2 0.200898 0.836999 0.388613
418 4 0.48128 0.816164 0.398756
1350 2 0.0467627 0.913466 0.340107
1352 4 0.0194393 0.897469 0.357368
481 4 0.183219 0.960975 0.370473
480 2 0.202103 0.955797 0.400754
182 4 0.480415 0.260572 0.0410402
72 2 0.396686 0.0148046 0.48801
74 4 0.367049 0.0324785 0.498487
142 4 0.0420491 0.125085 0.428313
141 2 0.049467 0.119662 0.463184
1471 4 0.254407 0.187354 0.45428
1470 2 0.274877 0.211532 0.437052
1472 4 0.295346 0.235711 0.419823
1310 4 0.123967 0.312881 0.480925
1308 2 0.138904 0.28801 0.459507
1309 4 0.153841 0.26314 0.438089
1101 2 0.195023 0.352321 0.461807
904 4 0.4554 0.361078 0.472583
1103 4 0.188642 0.357448 0.496927
905 4 0.384639 0.373495 0.466234
903 2 0.42002 0.367286 0.469408
1332 2 0.211383 0.504086 0.43151
1333 4 0.236202 0.47802 0.433753
283 4 0.262553 0.478801 0.459272
282 2 0.293327 0.49575 0.45114
284 4 0.324101 0.512699 0.443009
716 4 0.335611 0.533063 0.410556
583 4 0.24547 0.933261 0.44629
785 4 0.142971 0.626216 0.434938
998 4 0.247919 0.59523 0.476987
996 2 0.266785 0.623551 0.488919
496 4 0.14265 0.752022 0.453695
1218 2 0.331509 0.721542 0.480048
495 2 0.135462 0.786624 0.460864
497 4 0.128275 0.821227 0.468034
211 4 0.164888 0.813854 0.474242
490 4 0.269435 0.766054 0.447331
489 2 0.275212 0.780347 0.414731
744 2 0.386275 0.769595 0.439861
746 4 0.364673 0.741366 0.445932
1220 4 0.344466 0.754579 0.473634
832 4 0.0344711 0.887416 0.473108
831 2 0.0671681 0.875457 0.463712
833 4 0.0998659 0.863498 0.454317
984 2 0.134086 0.892135 0.419436
986 4 0.102936 0.897105 0.43691
212 4 0.228269 0.847202 0.482759
210 2 0.196579 0.830528 0.4785
584 4 0.250834 0.876715 0.490735
582 2 0.248152 0.904988 0.468513
482 4 0.220987 0.950619 0.431035
143 4 0.0568837 0.114237 0.498055
1349 4 0.453338 0.429709 0.494117
169 4 0.0673466 0.994766 0.48899
1391 4 0.455082 0.932177 0.493246
279 2 0.0326984 0.0473471 0.508583
280 4 0.0326115 0.0828618 0.514843
669 2 0.0466014 0.0857905 0.573789
1097 4 0.299739 0.0569033 0.540046
184 4 0.420461 0.0654406 0.55767
1107 2 0.418813 0.0195279 0.562924
671 4 0.0540079 0.102593 0.542751
286 4 0.49802 0.733513 0.879878
1095 2 0.31011 0.0871718 0.523412
1096 4 0.320481 0.11744 0.506778
183 2 0.434321 0.0985221 0.553938
185 4 0.44818 0.131604 0.550206
817 4 0.100927 0.308253 0.54981
666 2 0.310943 0.330547 0.572802
668 4 0.334123 0.32116 0.546821
818 4 0.0508036 0.351211 0.520762
816 2 0.075866 0.329732 0.535286
1023 2 0.160636 0.360527 0.563195
1024 4 0.148077 0.356352 0.52965
828 2 0.237466 0.345473 0.543258
829 4 0.219219 0.34547 0.512154
830 4 0.255721 0.345475 0.574373
270 2 0.273129 0.41171 0.576505
1125 2 0.238142 0.492588 0.588065
271 4 0.268736 0.445636 0.565099
1348 4 0.412958 0.422148 0.553396
1347 2 0.433148 0.425929 0.523756
737 4 0.0025727 0.230978 0.921481
1160 4 0.0836658 0.576772 0.568323
1126 4 0.218606 0.522368 0.582415
248 4 0.213587 0.554106 0.5675
246 2 0.22691 0.57377 0.540367
1159 4 0.127186 0.576574 0.510812
1158 2 0.105426 0.576672 0.539568
562 4 0.0945871 0.609166 0.58304
247 4 0.240234 0.593435 0.513234
337 4 0.237339 0.653887 0.590985
1105 4 0.268436 0.660467 0.578076
997 4 0.285652 0.651872 0.500852
1048 4 0.308044 0.651696 0.529728
1047 2 0.341649 0.638966 0.526715
1049 4 0.375254 0.626236 0.523702
1106 4 0.270347 0.715582 0.531599
1104 2 0.269392 0.688025 0.554837
530 4 0.140515 0.298556 0.99024
993 2 0.490682 0.724543 0.533659
995 4 0.471442 0.729858 0.563692
698 4 0.0160737 0.872846 0.528808
696 2 0.00289214 0.855095 0.557295
202 4 0.132205 0.888072 0.546173
201 2 0.142136 0.85891 0.52743
203 4 0.152066 0.829746 0.508686
952 4 0.486844 0.472381 0.542906
1286 4 0.0126692 0.956025 0.610688
1109 4 0.4008 0.997134 0.541143
1389 2 0.443337 0.954325 0.519168
1390 4 0.43159 0.976472 0.54509
773 4 0.495595 0.643098 0.66223
670 4 0.0391947 0.0689871 0.604824
648 2 0.0901813 0.992745 0.626675
650 4 0.0663411 0.0197705 0.625367
117 2 0.218789 0.0446577 0.632302
119 4 0.210686 0.079795 0.632704
1239 2 0.323374 0.0958222 0.657906
1108 4 0.436827 0.0419222 0.584705
1254 2 0.159738 0.946614 0.933516
379 4 0.0701401 0.170143 0.616419
1134 2 0.181698 0.119336 0.636506
1135 4 0.169921 0.136879 0.607284
1136 4 0.193476 0.101793 0.665728
1241 4 0.312501 0.0835733 0.625779
1075 4 0.334486 0.170426 0.650191
894 2 0.382122 0.161095 0.619836
896 4 0.358665 0.185549 0.632172
554 4 0.0705823 0.207121 0.614745
552 2 0.0532526 0.23091 0.593909
553 4 0.0359229 0.2547 0.573073
380 4 0.126578 0.164024 0.660905
378 2 0.0983592 0.167084 0.638662
1074 2 0.322231 0.202522 0.661148
895 4 0.405579 0.136642 0.607498
335 4 0.028756 0.268165 0.606614
333 2 0.00738187 0.287919 0.627904
1256 4 0.131486 0.953222 0.954931
115 4 0.219662 0.255315 0.593299
114 2 0.237054 0.286396 0.598951
116 4 0.254454 0.317487 0.604603
680 4 0.275622 0.332537 0.636799
678 2 0.285677 0.304918 0.657709
1025 4 0.173194 0.364703 0.59674
826 4 0.188772 0.387709 0.622603
825 2 0.221102 0.372434 0.617928
272 4 0.277525 0.377772 0.587914
667 4 0.287751 0.339941 0.598793
827 4 0.253434 0.357146 0.613244
161 4 0.316428 0.368627 0.595666
1258 4 0.289783 0.369837 0.626296
1257 2 0.290991 0.382202 0.660154
159 2 0.343956 0.391245 0.601287
160 4 0.371475 0.413861 0.606909
866 4 0.397877 0.412213 0.630779
979 4 0.1147 0.478652 0.674439
1200 2 0.138754 0.465212 0.630315
1202 4 0.117429 0.493203 0.638199
1201 4 0.160079 0.43722 0.622431
1127 4 0.257678 0.462808 0.593715
864 2 0.394504 0.447287 0.623106
865 4 0.391131 0.482361 0.615434
561 2 0.103261 0.640473 0.598694
336 2 0.251299 0.628415 0.612355
193 4 0.298784 0.618368 0.645187
338 4 0.265258 0.602942 0.633726
563 4 0.111935 0.671779 0.614349
758 4 0.462758 0.708037 0.593107
1383 2 0.028245 0.832732 0.629903
1384 4 0.0582679 0.815525 0.640049
1018 4 0.412544 0.795945 0.628715
756 2 0.447474 0.739285 0.602615
757 4 0.43219 0.770533 0.612124
630 2 0.434457 0.00808819 0.964862
1385 4 0.998221 0.84994 0.619757
69 2 0.314313 0.874472 0.668615
1017 2 0.416435 0.831507 0.633259
70 4 0.33655 0.851325 0.652178
1019 4 0.420327 0.867069 0.637802
649 4 0.114021 0.96572 0.627982
118 4 0.226891 0.00952091 0.631901
967 4 0.302493 0.959833 0.662498
238 4 0.37564 0.00886709 0.618247
237 2 0.355747 0.987867 0.639779
239 4 0.335854 0.966866 0.661312
981 2 0.0031087 0.0662233 0.734074
983 4 0.00321002 0.0589528 0.698754
1240 4 0.334248 0.108071 0.690033
835 4 0.354868 0.090325 0.716032
89 4 0.399267 0.999899 0.759763
814 4 0.214668 0.120799 0.688851
813 2 0.244752 0.128579 0.707151
815 4 0.274836 0.13636 0.725449
834 2 0.345645 0.112249 0.743136
1342 4 0.494752 0.147935 0.734019
305 4 0.151472 0.18397 0.691033
303 2 0.181947 0.194851 0.706951
304 4 0.212419 0.205732 0.722868
1076 4 0.309975 0.234618 0.672105
1414 4 0.472946 0.222605 0.718347
1413 2 0.451475 0.251414 0.715286
1138 4 0.497017 0.239194 0.696559
165 2 0.0630691 0.979221 0.942096
824 4 0.00869679 0.296901 0.676909
694 4 0.102903 0.28883 0.682128
693 2 0.130943 0.287042 0.704733
292 4 0.183671 0.211711 0.74908
695 4 0.158983 0.285254 0.727337
27 3 0.247321 0.327455 0.707888
29 3 0.208782 0.308444 0.740929
679 4 0.295732 0.277302 0.678605
940 4 0.333514 0.258006 0.66888
939 2 0.353312 0.271017 0.696067
941 4 0.37311 0.284028 0.723255
1415 4 0.430006 0.280226 0.712223
1000 4 0.442063 0.31785 0.717754
849 2 0.122225 0.413591 0.721646
851 4 0.0933972 0.418429 0.742765
28 3 0.195567 0.340598 0.69855
26 1 0.218322 0.334584 0.72234
1259 4 0.29221 0.394571 0.694006
934 4 0.484318 0.398187 0.739642
1396 4 0.0587317 0.433193 0.752835
978 2 0.0991577 0.496279 0.701792
850 4 0.151053 0.408753 0.700527
980 4 0.0836159 0.513906 0.729144
475 4 0.312384 0.421692 0.685824
474 2 0.326625 0.426982 0.718528
476 4 0.340867 0.432271 0.751233
49 3 0.125161 0.530191 0.735481
46 1 0.155122 0.542486 0.727049
48 3 0.153078 0.558431 0.697698
47 3 0.176592 0.517361 0.724132
56 4 0.250761 0.567194 0.695986
55 4 0.21452 0.513871 0.728311
54 2 0.232641 0.540532 0.712148
146 4 0.225323 0.630508 0.741074
192 2 0.291911 0.591518 0.668257
194 4 0.285038 0.564668 0.691327
772 4 0.470223 0.624683 0.727183
771 2 0.482908 0.633891 0.694707
86 4 0.22617 0.664026 0.725239
84 2 0.24249 0.695781 0.720171
85 4 0.258811 0.727536 0.715104
1232 4 0.0462891 0.827714 0.673057
1230 2 0.0677019 0.82772 0.702072
92 4 0.461593 0.803094 0.72697
90 2 0.486288 0.778669 0.717276
1231 4 0.0891143 0.827727 0.731088
1340 4 0.0909502 0.887541 0.753131
250 4 0.0687975 0.855922 0.742679
71 4 0.292075 0.897618 0.685052
752 4 0.495638 0.823329 0.746118
1339 4 0.113497 0.951456 0.728467
1338 2 0.102224 0.919499 0.7408
966 2 0.289479 0.961374 0.696094
968 4 0.276465 0.962916 0.729691
982 4 0.0030063 0.0734934 0.769396
722 4 0.071277 0.0329835 0.824283
720 2 0.0597279 0.0106814 0.798406
721 4 0.0481781 0.988379 0.772529
632 4 0.468437 0.00121287 0.974787
791 4 0.00431577 0.104128 0.782189
302 4 0.0938731 0.0532676 0.806277
300 2 0.123415 0.0602864 0.825731
301 4 0.152956 0.0673039 0.845187
518 4 0.389569 0.0316804 0.771597
516 2 0.36825 0.027423 0.800368
88 4 0.469244 0.00195969 0.777107
87 2 0.434255 0.000929757 0.768435
789 2 0.00380978 0.137904 0.794812
790 4 0.00330302 0.17168 0.807435
1114 4 0.28425 0.143356 0.792566
1113 2 0.287684 0.148967 0.828022
836 4 0.336421 0.134173 0.77024
1341 2 0.498019 0.155774 0.769066
949 4 0.45727 0.107851 0.826876
52 4 0.0685187 0.233948 0.811405
51 2 0.101903 0.221425 0.816794
53 4 0.135288 0.208903 0.822184
291 2 0.186462 0.222 0.783529
293 4 0.189252 0.23229 0.817979
1281 2 0.406009 0.205451 0.78491
1283 4 0.397236 0.181747 0.759187
1343 4 0.501285 0.163613 0.804113
1282 4 0.41478 0.229153 0.810632
881 4 0.0403983 0.254986 0.799847
879 2 0.0182355 0.277599 0.782588
1001 4 0.405787 0.320062 0.78005
999 2 0.423925 0.318956 0.748902
149 4 0.0250155 0.443818 0.771002
1382 4 0.0150323 0.343267 0.814005
1380 2 0.0486865 0.35062 0.824669
30 3 0.221943 0.361126 0.741349
690 2 0.396914 0.396078 0.822941
691 4 0.419859 0.377012 0.802682
935 4 0.419436 0.381719 0.766491
933 2 0.451877 0.389953 0.753066
1395 2 0.0711826 0.461354 0.771605
1397 4 0.0836333 0.489516 0.790376
427 4 0.0801031 0.522061 0.772616
426 2 0.0530516 0.543693 0.782652
428 4 0.0260008 0.565327 0.792687
50 3 0.165715 0.563124 0.750301
178 4 0.152077 0.598049 0.807706
177 2 0.174114 0.575264 0.824894
1162 4 0.00814083 0.600729 0.804843
797 4 0.0884088 0.61196 0.772148
795 2 0.122795 0.621172 0.777904
796 4 0.157181 0.630387 0.78366
144 2 0.19853 0.612116 0.756705
145 4 0.171738 0.593724 0.772335
1242 2 0.404826 0.6285 0.780315
1226 4 0.355844 0.651187 0.818745
1243 4 0.3709 0.635446 0.790377
1244 4 0.438751 0.621556 0.770253
1307 4 0.0977812 0.692091 0.818359
1305 2 0.129054 0.696207 0.800883
605 4 0.162133 0.737255 0.777171
1306 4 0.160328 0.700324 0.783408
604 4 0.211243 0.754568 0.827073
603 2 0.186689 0.745912 0.802123
919 4 0.387641 0.83155 0.833747
131 4 0.357466 0.840747 0.820078
249 2 0.070502 0.857165 0.778678
251 4 0.0722079 0.85841 0.814679
129 2 0.354793 0.876157 0.826357
130 4 0.352118 0.911566 0.832634
1014 2 0.289257 0.813632 0.98084
376 4 0.01859 0.99311 0.753561
225 2 0.257548 0.954437 0.771285
227 4 0.241125 0.924179 0.782014
226 4 0.273971 0.984695 0.760555
676 4 0.00903921 0.0701699 0.884076
675 2 0.017148 0.0460104 0.909591
677 4 0.0252568 0.021853 0.935105
526 4 0.144216 0.0343292 0.863393
525 2 0.1494 0.047208 0.896676
1400 4 0.318167 0.0232105 0.917412
1398 2 0.298705 0.00892611 0.890624
517 4 0.346931 0.0231653 0.829139
436 4 0.391604 0.00732199 0.846498
1255 4 0.187989 0.940006 0.912102
948 2 0.478808 0.126802 0.848726
1115 4 0.291119 0.154579 0.863478
252 2 0.364455 0.300824 0.90904
254 4 0.39924 0.293405 0.903092
319 4 0.421538 0.309091 0.880117
1381 4 0.0823409 0.357973 0.835332
320 4 0.462158 0.368602 0.876942
318 2 0.441848 0.338846 0.87853
692 4 0.373969 0.415144 0.8432
179 4 0.19615 0.552476 0.842086
1209 2 0.418232 0.572527 0.876772
1211 4 0.426057 0.54623 0.900175
560 4 0.426703 0.510725 0.889211
1161 2 0.0326744 0.603916 0.83108
1163 4 0.0572089 0.607103 0.857316
1216 4 0.0558109 0.622451 0.889406
598 4 0.25078 0.60281 0.831326
597 2 0.269654 0.612602 0.860451
599 4 0.28853 0.622394 0.889576
1224 2 0.366944 0.630994 0.846483
1225 4 0.378045 0.610799 0.874221
1210 4 0.410407 0.598823 0.85337
570 2 0.0567832 0.683162 0.908884
571 4 0.0758742 0.699276 0.882878
645 2 0.16467 0.705474 0.934424
646 4 0.174819 0.684373 0.906999
639 2 0.113457 0.825549 0.893785
918 2 0.405057 0.80805 0.85484
920 4 0.422472 0.784551 0.875932
287 4 0.431451 0.752546 0.859669
285 2 0.464734 0.743029 0.869773
640 4 0.117171 0.846338 0.864555
868 4 0.145426 0.866366 0.863184
867 2 0.170594 0.889923 0.87377
869 4 0.195761 0.913481 0.884357
167 4 0.0317342 0.991328 0.928982
128 4 0.29546 0.965924 0.845537
1399 4 0.279245 0.994641 0.863835
127 4 0.36411 0.943835 0.844566
126 2 0.329784 0.954879 0.845051
435 2 0.404146 0.977791 0.862961
437 4 0.416687 0.948259 0.879424
527 4 0.154585 0.0600863 0.929957
631 4 0.400477 0.0149654 0.954937
265 4 0.392377 0.0962487 0.96418
264 2 0.427825 0.0929059 0.958458
266 4 0.463273 0.0895624 0.952738
1460 4 0.379555 0.211268 0.929495
1458 2 0.383302 0.207623 0.965176
434 4 0.0369037 0.73723 0.552251
253 4 0.32967 0.308243 0.914989
1189 4 0.999247 0.385941 0.925194
717 2 0.215082 0.384651 0.941304
719 4 0.224518 0.35027 0.935885
718 4 0.205645 0.419031 0.946723
559 4 0.45758 0.50414 0.954057
558 2 0.442141 0.507432 0.921634
328 4 0.478882 0.574174 0.907234
339 2 0.468837 0.566173 0.96741
1215 2 0.0633148 0.602006 0.918148
1217 4 0.0708187 0.581562 0.94689
340 4 0.452963 0.571456 0.935464
572 4 0.0376928 0.667047 0.934889
647 4 0.154521 0.726575 0.961849
1167 2 0.0937057 0.741151 0.949297
1168 4 0.121809 0.718559 0.949764
1177 4 0.0483829 0.781485 0.975127
166 4 0.0944038 0.967111 0.955209
1169 4 0.0656028 0.763743 0.94883
641 4 0.109744 0.804759 0.923015
1015 4 0.254493 0.810958 0.971637
1016 4 0.324022 0.816307 0.990044
761 4 0.000929694 0.53861 0.57698
432 2 0.0146402 0.765497 0.549867
528 2 0.149697 0.264472 0.997616
847 4 0.0520637 0.285802 0.999423
341 4 0.484712 0.560891 0.999355
1176 2 0.0325383 0.807767 0.994064
548 4 0.242356 0.792314 0.999649
281 4 0.0327857 0.0118335 0.502321
170 4 0.100256 0.935559 0.513752
168 2 0.0838011 0.965162 0.501371
186 2 0.512485 0.0301572 0.00694565
439 4 0.692132 0.997202 0.00858335
794 4 0.930282 0.0816486 0.110489
622 4 0.968004 0.0126556 0.0703382
173 4 0.68268 0.133776 0.0545187
171 2 0.677453 0.104972 0.0334617
792 2 0.930822 0.0972798 0.0779953
793 4 0.931363 0.112911 0.0455023
892 4 0.937862 0.143399 0.0231117
1130 4 0.571028 0.207383 0.0572932
1273 4 0.654969 0.163701 0.00749844
1272 2 0.629685 0.17743 0.0292391
1274 4 0.6044 0.191157 0.0509799
352 4 0.819642 0.255311 0.0866444
470 4 0.855311 0.203415 0.0011553
893 4 0.907762 0.198338 0.0588534
891 2 0.922812 0.170868 0.0409824
3 3 0.924173 0.92911 0.417153
180 2 0.500673 0.289558 0.0339781
1276 4 0.516088 0.565914 0.473155
351 2 0.826481 0.2617 0.0518189
353 4 0.833321 0.268088 0.0169936
1301 4 0.577577 0.340773 0.0643872
156 2 0.764291 0.359836 0.00412743
1029 2 0.824454 0.413631 0.0425095
157 4 0.771919 0.390212 0.0220025
1031 4 0.860035 0.416595 0.0374521
1505 4 0.567876 0.508839 0.0076175
1043 4 0.785315 0.477115 0.00491219
1030 4 0.788873 0.410666 0.047567
1421 4 0.859694 0.434219 0.0702446
1419 2 0.87767 0.463109 0.0821879
1420 4 0.895646 0.491999 0.094131
1503 2 0.549376 0.538794 0.0154128
1504 4 0.530875 0.568751 0.0232085
1253 4 0.747603 0.546758 0.0675878
1271 4 0.817853 0.553318 0.0429345
1269 2 0.838556 0.567617 0.0687687
394 4 0.532699 0.573813 0.0602552
1184 4 0.626596 0.600476 0.0533424
1185 2 0.954153 0.595962 0.0614444
1187 4 0.957925 0.560864 0.0688071
1186 4 0.950381 0.631063 0.0540813
602 4 0.651029 0.709721 0.00657324
600 2 0.652631 0.730097 0.0362823
601 4 0.654232 0.750473 0.0659923
1437 2 0.998084 0.891579 0.0851175
326 4 0.943242 0.664951 0.0370407
324 2 0.939197 0.690037 0.0114523
1099 4 0.683909 0.8135 0.0958384
1354 4 0.665238 0.81294 0.0645276
1353 2 0.663961 0.828667 0.0321003
1246 4 0.994225 0.234546 0.155003
438 2 0.668699 0.0245774 0.00994575
1370 4 0.780806 0.126873 0.476426
1453 4 0.832522 0.799205 0.00106137
413 4 0.960046 0.788561 0.0857805
415 4 0.982626 0.824654 0.00470076
389 4 0.536309 0.916667 0.0852042
1361 4 0.518633 0.908153 0.018261
63 2 0.658647 0.904354 0.00989422
65 4 0.63755 0.933187 0.0147902
733 4 0.729313 0.994431 0.00167733
732 2 0.741738 0.972462 0.0274341
734 4 0.754163 0.950494 0.0531916
120 2 0.836341 0.97308 0.0112654
122 4 0.825164 0.994395 0.0381205
623 4 0.937464 0.00585821 0.13532
621 2 0.952734 0.00925695 0.102829
1128 2 0.580397 0.220371 0.0896032
1129 4 0.589767 0.23336 0.121913
229 4 0.666406 0.246446 0.142898
228 2 0.690466 0.225093 0.126603
230 4 0.714526 0.20374 0.110308
62 4 0.784871 0.177057 0.10849
60 2 0.805537 0.183834 0.137253
1300 4 0.581242 0.305684 0.127293
946 4 0.597778 0.276652 0.113448
1299 2 0.579409 0.323229 0.0958399
947 4 0.666008 0.277057 0.136818
945 2 0.631894 0.276854 0.125133
885 2 0.804833 0.320817 0.129734
887 4 0.812443 0.306468 0.161931
64 4 0.679744 0.875519 0.00499852
886 4 0.797222 0.335166 0.0975373
308 4 0.765303 0.419911 0.135582
311 4 0.792072 0.41316 0.163556
306 2 0.764674 0.454436 0.125186
307 4 0.764045 0.488961 0.114791
393 2 0.524116 0.581242 0.0944842
395 4 0.515533 0.588671 0.128712
1251 2 0.768818 0.53675 0.0949766
1252 4 0.790034 0.526742 0.122366
1270 4 0.859259 0.581915 0.0946027
1183 4 0.646357 0.5957 0.122539
1182 2 0.636477 0.598088 0.0879408
361 4 0.65448 0.663261 0.16973
362 4 0.67521 0.604302 0.133732
360 2 0.664845 0.633781 0.151731
412 4 0.984234 0.723949 0.106802
112 4 0.573263 0.780194 0.10655
113 4 0.517493 0.812114 0.139299
111 2 0.545378 0.796154 0.122925
1357 4 0.505808 0.78408 0.159833
1100 4 0.658128 0.74656 0.103331
1098 2 0.671019 0.78003 0.0995855
398 4 0.577169 0.75188 0.160606
411 2 0.97214 0.756255 0.0962915
899 4 0.557579 0.906222 0.140551
907 4 0.533312 0.927751 0.121325
403 4 0.725479 0.897988 0.113149
402 2 0.702662 0.9008 0.140931
1439 4 0.966504 0.908901 0.086879
387 2 0.571157 0.925124 0.0890077
906 2 0.499929 0.941227 0.123429
388 4 0.606005 0.933582 0.0928126
164 4 0.986514 0.924292 0.152084
162 2 0.998384 0.958267 0.15438
1080 2 0.564211 0.0543842 0.235526
1082 4 0.560055 0.029056 0.210196
77 4 0.777111 0.106291 0.249226
81 2 0.98874 0.1771 0.227385
478 4 0.567815 0.185695 0.243937
1146 2 0.635143 0.16329 0.253724
1147 4 0.610313 0.179372 0.233102
61 4 0.826203 0.190611 0.166018
884 4 0.819677 0.238315 0.250454
83 4 0.9573 0.188747 0.240662
1006 4 0.784429 0.289741 0.18386
1005 2 0.788284 0.260474 0.204573