ITEM: TIMESTEP
311000
ITEM: NUMBER OF ATOMS
1520
ITEM: BOX BOUNDS pp pp pp
-6.9326749999999997e+00 6.9326749999999997e+00
-6.9326749999999997e+00 6.9326749999999997e+00
-6.9326749999999997e+00 6.9326749999999997e+00
ITEM: ATOMS id type xs ys zs
1181 4 0.446442 0.988645 0.0385854
620 4 0.474241 0.0125767 0.03737
1179 2 0.428104 0.996257 0.00848209
10 3 0.430725 0.0962337 0.0372533
88 4 0.198724 0.0770771 0.0975458
7 3 0.482875 0.10794 0.0308848
308 4 0.0208806 0.725653 0.351902
6 1 0.455024 0.0988625 0.015311
673 4 0.126979 0.194724 0.097639
1036 4 0.109159 0.186331 0.0673549
1035 2 0.105447 0.187398 0.0315012
1116 2 0.442947 0.26487 0.0120755
1172 4 0.419419 0.30529 0.0698679
1170 2 0.384644 0.295768 0.0692039
1117 4 0.430782 0.286089 0.038575
411 2 0.0114315 0.825049 0.110472
950 4 0.426434 0.341963 0.0611727
975 2 0.0928287 0.457844 0.0320412
977 4 0.0773216 0.464811 0.000238478
976 4 0.108336 0.450877 0.0638444
242 4 0.22896 0.480452 0.00185949
831 2 0.401922 0.647177 0.0124141
1114 4 0.0987327 0.43094 0.0970491
1113 2 0.0888063 0.450576 0.12562
732 2 0.0356423 0.608915 0.0721901
48 3 0.46906 0.659718 0.0862294
734 4 0.0644328 0.593317 0.0872972
1240 4 0.00579969 0.889217 0.102876
911 4 0.0484093 0.814381 0.0371394
1428 2 0.0819 0.80833 0.0850789
1430 4 0.0520159 0.823601 0.0718818
141 2 0.161117 0.838963 0.0306451
142 4 0.125705 0.843872 0.0259197
215 4 0.314188 0.776863 0.0225432
213 2 0.287499 0.765557 0.00108944
413 4 0.020784 0.857812 0.0986618
233 4 0.415012 0.765207 0.0910204
457 4 0.00571901 0.902546 0.0203051
1178 4 0.335224 0.884407 0.0411137
1176 2 0.323833 0.851144 0.0331
1177 4 0.312443 0.81788 0.0250859
458 4 0.0622594 0.945943 0.031331
427 4 0.0859033 0.968572 0.013684
456 2 0.0339892 0.924244 0.0258183
800 4 0.156625 0.978851 0.0694539
799 4 0.17842 0.937088 0.0148424
798 2 0.167523 0.957969 0.0421482
618 2 0.486681 0.0371826 0.0606124
143 4 0.196528 0.834055 0.0353707
377 4 0.113694 0.0567175 0.112008
375 2 0.0808096 0.0709298 0.107878
89 4 0.131369 0.0821991 0.0722722
87 2 0.165047 0.079638 0.0849091
178 4 0.385269 0.0618127 0.139668
849 2 0.439679 0.00353454 0.114037
850 4 0.421664 0.0302936 0.0979187
832 4 0.409509 0.676737 0.0316262
328 4 0.00155843 0.125781 0.148632
327 2 0.033903 0.141606 0.146684
376 4 0.0479254 0.085142 0.103749
1258 4 0.401792 0.214411 0.125997
329 4 0.0662476 0.157431 0.144735
806 4 0.0529537 0.242846 0.168142
804 2 0.0240479 0.253586 0.149446
672 2 0.0977422 0.194136 0.11874
674 4 0.068505 0.193549 0.139841
1257 2 0.394057 0.191859 0.153053
1259 4 0.386322 0.169307 0.180108
634 4 0.21577 0.895761 0.474959
658 4 0.171011 0.322481 0.131262
657 2 0.19602 0.298593 0.121046
659 4 0.221028 0.274706 0.110829
1465 4 0.303519 0.276872 0.172104
1171 4 0.349869 0.286247 0.0685393
890 4 0.131996 0.365485 0.14407
948 2 0.445942 0.370503 0.0509099
949 4 0.46545 0.399044 0.0406472
1115 4 0.0788794 0.470212 0.154191
1264 4 0.343777 0.427049 0.124443
1265 4 0.345482 0.418452 0.19603
1263 2 0.344629 0.422751 0.160236
1367 4 0.241931 0.50074 0.127563
1365 2 0.22682 0.53268 0.120359
1366 4 0.211708 0.56462 0.113155
1285 4 0.232993 0.508686 0.163369
508 4 0.396185 0.523099 0.109941
507 2 0.372197 0.530113 0.0839446
509 4 0.348209 0.537127 0.0579488
1360 4 0.39638 0.538183 0.149654
1359 2 0.398943 0.526723 0.18375
733 4 0.00685195 0.624513 0.0570829
941 4 0.191783 0.578262 0.142059
900 2 0.213309 0.638044 0.10115
902 4 0.187976 0.617574 0.0856716
901 4 0.238643 0.658515 0.116629
873 2 0.307731 0.646565 0.130739
875 4 0.331678 0.632048 0.153459
1469 4 0.363684 0.616128 0.150836
1088 4 0.409547 0.682579 0.122286
50 3 0.424126 0.690208 0.0866501
49 3 0.419702 0.636196 0.0901046
46 1 0.438065 0.662903 0.098439
47 3 0.439718 0.664884 0.131515
441 2 0.0175736 0.751823 0.0727889
443 4 0.0286722 0.743875 0.0394115
15 3 0.181496 0.729093 0.14214
198 2 0.187171 0.674889 0.173436
874 4 0.283783 0.661081 0.108019
200 4 0.188019 0.710924 0.174519
14 3 0.190083 0.742989 0.193928
424 4 0.266456 0.678951 0.149054
1087 4 0.373005 0.708232 0.178928
1086 2 0.391276 0.695405 0.150608
412 4 0.0020794 0.792285 0.122282
442 4 0.00647494 0.75977 0.106167
1429 4 0.111784 0.793059 0.0982762
12 3 0.160161 0.774537 0.161558
275 4 0.220491 0.800066 0.125301
13 3 0.213656 0.771377 0.153395
11 1 0.186413 0.754281 0.16264
273 2 0.228239 0.823048 0.151988
274 4 0.235988 0.846029 0.178676
26 1 0.354778 0.819563 0.105441
29 3 0.358947 0.789831 0.120224
27 3 0.357792 0.815741 0.0726238
1160 4 0.26576 0.845753 0.159293
28 3 0.324247 0.831493 0.112185
231 2 0.441971 0.783069 0.106975
232 4 0.46893 0.800931 0.12293
30 3 0.377636 0.840643 0.116022
596 4 0.468848 0.882184 0.190111
594 2 0.472183 0.851626 0.171258
104 4 0.46741 0.916313 0.177314
174 2 0.146354 0.00213962 0.125234
176 4 0.136251 0.0287792 0.103128
851 4 0.457695 0.976776 0.130154
102 2 0.462111 0.930936 0.14478
103 4 0.456811 0.945559 0.112245
794 4 0.0690828 0.0808662 0.209927
792 2 0.0861998 0.0498099 0.216479
1501 4 0.257082 0.0510555 0.203987
177 2 0.370899 0.030564 0.150504
788 4 0.286638 0.0666098 0.206647
786 2 0.28746 0.10243 0.210724
787 4 0.288283 0.138251 0.214801
530 4 0.491789 0.144955 0.182019
1376 4 0.494877 0.11112 0.324495
382 4 0.0762999 0.209562 0.168029
383 4 0.129839 0.21326 0.216211
381 2 0.103069 0.211411 0.19212
277 4 0.137046 0.174843 0.22039
276 2 0.171976 0.173255 0.229207
1313 4 0.275761 0.199336 0.203397
1311 2 0.240442 0.200204 0.210623
193 4 0.34982 0.164893 0.177319
192 2 0.319937 0.168982 0.197085
194 4 0.290055 0.17307 0.216852
550 4 0.00418924 0.924918 0.455268
1466 4 0.348595 0.324103 0.202748
1464 2 0.326057 0.300487 0.187426
1008 2 0.478697 0.320194 0.18383
888 2 0.112232 0.382716 0.168827
94 4 0.0806341 0.389056 0.231093
889 4 0.0924676 0.399947 0.193585
1009 4 0.444011 0.327388 0.190574
1403 4 0.444748 0.354296 0.216429
1401 2 0.422428 0.369984 0.24001
452 4 0.0735917 0.431247 0.205945
450 2 0.0710346 0.447775 0.237893
667 4 0.363554 0.42764 0.224799
666 2 0.387556 0.453924 0.219016
1361 4 0.401505 0.515263 0.217846
1463 4 0.425669 0.454436 0.158959
1461 2 0.460784 0.461976 0.162197
939 2 0.158966 0.587364 0.15392
812 4 0.144876 0.579895 0.192273
940 4 0.126151 0.596466 0.165781
810 2 0.133491 0.568841 0.224656
1286 4 0.288892 0.513753 0.20866
1284 2 0.260942 0.511219 0.186015
668 4 0.411558 0.480209 0.213233
843 2 0.461452 0.581982 0.225126
844 4 0.464085 0.558291 0.198067
1232 4 0.201185 0.608111 0.160888
1230 2 0.22185 0.602579 0.189919
1231 4 0.242513 0.597047 0.21895
1467 2 0.368579 0.596343 0.180584
1468 4 0.373474 0.576557 0.210333
845 4 0.458818 0.605674 0.252185
352 4 0.499992 0.64892 0.250422
288 2 0.105989 0.747495 0.187651
199 4 0.186324 0.638854 0.172352
290 4 0.0733898 0.737375 0.199283
425 4 0.230104 0.740766 0.141364
423 2 0.24828 0.709859 0.145209
351 2 0.502301 0.683967 0.242251
356 4 0.0239966 0.731439 0.237685
354 2 0.00600465 0.762613 0.235487
289 4 0.138586 0.757615 0.176021
1293 2 0.144992 0.788565 0.242786
1295 4 0.128012 0.819847 0.248579
595 4 0.475518 0.821067 0.152404
648 2 0.460406 0.752747 0.248527
649 4 0.487554 0.752893 0.224792
1158 2 0.296887 0.860176 0.170402
1159 4 0.328015 0.8746 0.181512
632 4 0.321601 0.88976 0.216813
559 4 0.407169 0.855745 0.22678
175 4 0.156457 0.9755 0.14734
481 4 0.221133 0.98326 0.197783
480 2 0.20973 0.951044 0.209296
630 2 0.318774 0.922653 0.202305
482 4 0.198328 0.918829 0.220809
631 4 0.315947 0.955545 0.187796
179 4 0.356529 0.999315 0.16134
731 4 0.345407 0.93969 0.256283
729 2 0.368662 0.965437 0.24645
793 4 0.103317 0.018754 0.223032
1502 4 0.214696 0.0193704 0.252987
859 4 0.198519 0.0414892 0.27822
858 2 0.195817 0.0464665 0.313834
1500 2 0.235889 0.0352129 0.228487
519 2 0.404267 0.0384335 0.28791
521 4 0.389119 0.0198817 0.260951
520 4 0.419415 0.0569848 0.314868
1375 4 0.451251 0.0598901 0.298534
204 2 0.118049 0.177924 0.294503
206 4 0.13959 0.161745 0.318474
692 4 0.346687 0.131447 0.291822
690 2 0.313437 0.119537 0.284543
319 4 0.377605 0.178019 0.287945
691 4 0.280187 0.107626 0.277263
320 4 0.399385 0.113102 0.310596
318 2 0.388495 0.14556 0.299271
1374 2 0.473064 0.0855048 0.311514
205 4 0.096507 0.194102 0.270532
1499 4 0.202601 0.17761 0.277073
278 4 0.206907 0.171667 0.238026
1497 2 0.220727 0.16229 0.304224
1312 4 0.205123 0.201072 0.217848
1058 4 0.224182 0.313805 0.301115
1314 2 0.33226 0.314172 0.300078
1316 4 0.343873 0.343803 0.283119
1315 4 0.320646 0.284543 0.317036
93 2 0.107086 0.374441 0.250769
95 4 0.133539 0.359827 0.270445
1056 2 0.19267 0.331325 0.301792
1075 4 0.319634 0.370503 0.299629
1402 4 0.400107 0.385672 0.263592
611 4 0.0832094 0.472558 0.303005
451 4 0.0684779 0.464303 0.269842
609 2 0.0801401 0.452318 0.332693
1243 4 0.187511 0.486133 0.290994
1077 2 0.236892 0.420919 0.268557
1078 4 0.272532 0.426031 0.266537
1079 4 0.201252 0.415808 0.270576
1272 2 0.293151 0.476074 0.263513
1273 4 0.285926 0.449175 0.286418
1186 4 0.481003 0.476414 0.289509
1185 2 0.49266 0.502011 0.312077
811 4 0.122107 0.557788 0.257038
1244 4 0.143516 0.529032 0.253236
1242 2 0.165513 0.507582 0.272115
1274 4 0.300376 0.502973 0.240608
906 2 0.391511 0.534355 0.310455
1399 4 0.250992 0.686885 0.290736
908 4 0.374218 0.54262 0.27991
64 4 0.458575 0.599159 0.286811
65 4 0.413073 0.653433 0.300432
63 2 0.435824 0.626296 0.293621
1398 2 0.254927 0.721732 0.282335
1400 4 0.258861 0.756579 0.273933
353 4 0.504609 0.719014 0.234079
1294 4 0.161972 0.757284 0.236993
650 4 0.433258 0.7526 0.272263
1154 4 0.356187 0.840381 0.27517
1287 2 0.195076 0.862162 0.331057
1289 4 0.162998 0.845739 0.332371
1288 4 0.227153 0.878584 0.329742
314 4 0.219961 0.879756 0.292804
312 2 0.22223 0.886372 0.257427
1152 2 0.324228 0.834043 0.290625
560 4 0.386848 0.835815 0.293048
558 2 0.397008 0.84578 0.259914
119 4 0.150582 0.0108518 0.323558
313 4 0.224499 0.892988 0.222051
317 4 0.224066 0.00388057 0.432491
730 4 0.391918 0.991183 0.236617
316 4 0.183315 0.981099 0.377518
860 4 0.193115 0.0514443 0.349448
1044 2 0.183214 0.0928874 0.409447
679 4 0.0290014 0.139838 0.38346
1046 4 0.181988 0.0692899 0.382206
1498 4 0.238853 0.14697 0.331374
371 4 0.249431 0.208405 0.366598
369 2 0.229101 0.22437 0.391743
586 4 0.26913 0.201404 0.395749
585 2 0.294214 0.188105 0.417983
1055 4 0.398933 0.27704 0.447861
669 2 0.0882687 0.980982 0.432908
393 2 0.202419 0.316145 0.410143
370 4 0.208771 0.240327 0.416887
1053 2 0.423929 0.273877 0.422062
1069 4 0.478004 0.247158 0.397178
1054 4 0.448926 0.270714 0.396263
297 2 0.331883 0.828371 0.488063
663 2 0.165882 0.391281 0.350859
664 4 0.143063 0.375622 0.327739
395 4 0.196319 0.351595 0.407582
1057 4 0.161158 0.348845 0.302468
1166 4 0.219521 0.420734 0.450624
1076 4 0.361481 0.41161 0.34159
1074 2 0.340557 0.391056 0.32061
1432 4 0.489617 0.398572 0.361707
610 4 0.0770707 0.432078 0.36238
665 4 0.1887 0.40694 0.373979
1101 2 0.401316 0.482454 0.362952
1102 4 0.375457 0.470941 0.385293
907 4 0.408804 0.526089 0.341001
1103 4 0.427175 0.493968 0.34061
1187 4 0.504318 0.527608 0.334645
1508 4 0.0741055 0.608508 0.345424
261 2 0.0248934 0.619912 0.380702
262 4 0.0426503 0.598851 0.357431
1507 4 0.133642 0.645948 0.329447
1506 2 0.103873 0.627228 0.337436
91 4 0.226103 0.607049 0.40528
758 4 0.261398 0.610741 0.399445
756 2 0.284149 0.632173 0.381459
757 4 0.306899 0.653604 0.363473
686 4 0.341974 0.651556 0.370254
684 2 0.370608 0.653889 0.392049
449 4 0.42558 0.574012 0.480945
447 2 0.416932 0.603209 0.461627
448 4 0.408284 0.632406 0.442309
1029 2 0.43712 0.755736 0.329746
1030 4 0.453623 0.723811 0.326777
341 4 0.481863 0.699707 0.326049
264 2 0.0849973 0.711816 0.497222
1161 2 0.0681981 0.79299 0.409228
583 4 0.135818 0.776335 0.425065
1163 4 0.102523 0.781944 0.409658
926 4 0.285996 0.890656 0.35992
1031 4 0.420616 0.787662 0.332714
924 2 0.274517 0.860025 0.34474
925 4 0.263039 0.829395 0.32956
1153 4 0.292268 0.827706 0.30608
366 2 0.485301 0.849155 0.427022
265 4 0.0577791 0.735129 0.501229
670 4 0.0958482 0.960375 0.404302
117 2 0.133119 0.987195 0.344435
118 4 0.115657 0.963539 0.365313
315 2 0.20369 0.99249 0.405004
680 4 0.0284205 0.109123 0.448712
1045 4 0.184439 0.116485 0.436688
244 4 0.0226197 0.0944378 0.48046
678 2 0.0287109 0.124481 0.416086
1064 4 0.0615345 0.176469 0.450142
988 4 0.349332 0.161621 0.421438
987 2 0.364276 0.137698 0.443906
989 4 0.379219 0.113776 0.466374
1063 4 0.0445326 0.23308 0.408816
1062 2 0.0530335 0.204775 0.429479
54 2 0.176318 0.264428 0.476365
299 4 0.348842 0.813857 0.45974
55 4 0.199282 0.263953 0.448564
676 4 0.272372 0.193265 0.49555
587 4 0.319298 0.174806 0.440216
394 4 0.208519 0.280703 0.412701
1397 4 0.237491 0.262721 0.434892
1395 2 0.259387 0.275974 0.460296
1396 4 0.281281 0.289226 0.485701
826 4 0.313131 0.290886 0.471702
825 2 0.344326 0.279303 0.485598
1462 4 0.495899 0.469516 0.165435
367 4 0.450458 0.840561 0.430562
1165 4 0.21172 0.384826 0.388564
1164 2 0.21562 0.402781 0.419594
465 2 0.0821881 0.355333 0.484535
1330 4 0.327826 0.441793 0.456202
136 4 0.312014 0.420125 0.479596
135 2 0.284966 0.414171 0.50269
226 4 0.383857 0.441109 0.460795
1329 2 0.346806 0.459293 0.481381
225 2 0.419609 0.438706 0.456742
227 4 0.455361 0.436302 0.452688
660 2 0.0522647 0.565495 0.48953
661 4 0.0708588 0.552016 0.461728
607 4 0.0956684 0.526755 0.47039
606 2 0.11931 0.502042 0.481824
608 4 0.142952 0.477328 0.493257
266 4 0.112215 0.688502 0.493214
263 4 0.00713606 0.640972 0.403973
1321 4 0.10374 0.591401 0.490272
1322 4 0.130707 0.639141 0.443419
1320 2 0.117223 0.615271 0.466845
92 4 0.162753 0.629711 0.431256
90 2 0.194428 0.61838 0.418268
685 4 0.399242 0.656222 0.413845
715 4 0.0260651 0.837553 0.425487
671 4 0.0806893 0.00159038 0.461514
551 4 0.064584 0.92084 0.494478
549 2 0.0343866 0.922879 0.474874
1156 4 0.415557 0.716803 0.471698
1162 4 0.0338732 0.804037 0.408799
582 2 0.162015 0.779852 0.449596
584 4 0.188212 0.783369 0.474126
129 2 0.242854 0.815691 0.489618
130 4 0.242902 0.851747 0.490216
1205 4 0.173983 0.730271 0.467399
131 4 0.242806 0.779634 0.489021
856 4 0.349276 0.843243 0.442552
857 4 0.417487 0.844752 0.419173
855 2 0.383381 0.843997 0.430863
467 4 0.0792439 0.333856 0.455717
403 4 0.413124 0.208253 0.482808
619 4 0.49912 0.0617883 0.0838549
1108 4 0.404692 0.288944 0.497728
1364 4 0.464058 0.1483 0.0147234
1304 4 0.343356 0.203958 0.00604758
909 2 0.0648101 0.82847 0.00827882
1453 4 0.305073 0.0396926 0.554666
1452 2 0.337362 0.0396671 0.570724
243 2 0.0292675 0.107653 0.513347
245 4 0.0359152 0.120868 0.546233
785 4 0.022861 0.110635 0.575575
223 4 0.32415 0.13973 0.568773
409 4 0.0422533 0.151654 0.558455
677 4 0.335106 0.184455 0.530025
675 2 0.303739 0.18886 0.512787
1350 2 0.331043 0.204422 0.587877
1351 4 0.335586 0.175219 0.567213
211 4 0.0157435 0.65938 0.599169
402 2 0.418049 0.200815 0.517748
404 4 0.422975 0.193376 0.552688
436 4 0.456948 0.172384 0.56561
1436 4 0.0233203 0.892154 0.939362
1128 2 0.170657 0.323446 0.621762
965 4 0.17978 0.267627 0.52622
963 2 0.197641 0.288919 0.549199
964 4 0.215502 0.310212 0.572178
195 2 0.0128945 0.794425 0.91281
827 4 0.375522 0.267719 0.499495
1107 2 0.410358 0.297638 0.532264
1109 4 0.416024 0.306331 0.5668
146 4 0.0228585 0.300487 0.940363
1129 4 0.198775 0.331448 0.600649
228 2 0.0830452 0.434542 0.535129
229 4 0.0885938 0.46837 0.523935
435 2 0.48991 0.176736 0.551647
1141 4 0.365165 0.504974 0.53814
1331 4 0.365785 0.476793 0.506559
56 4 0.153355 0.264903 0.504165
1022 4 0.204136 0.540601 0.539946
325 4 0.273951 0.493724 0.61185
324 2 0.272989 0.5215 0.588871
1140 2 0.394096 0.524063 0.548091
1142 4 0.423027 0.543153 0.558042
995 4 0.397447 0.574066 0.55297
613 4 0.469018 0.503589 0.648445
662 4 0.0336709 0.578975 0.517333
1013 4 0.175495 0.674817 0.610556
564 2 0.25501 0.65267 0.55974
566 4 0.228567 0.634262 0.575934
1180 4 0.409767 0.00386985 0.978379
703 4 0.0231801 0.728118 0.493585
1420 4 0.501169 0.854202 0.937939
1012 4 0.156808 0.655296 0.543688
1011 2 0.166151 0.665057 0.577122
210 2 0.0238357 0.638517 0.627447
833 4 0.394335 0.617618 0.993202
565 4 0.281454 0.671079 0.543545
345 2 0.256244 0.737602 0.53776
346 4 0.235559 0.766807 0.533338
407 4 0.46606 0.669426 0.536693
1157 4 0.428949 0.6783 0.531195
1480 4 0.145401 0.784731 0.539615
1479 2 0.169097 0.811875 0.54106
109 4 0.344772 0.830943 0.900404
1484 4 0.128909 0.915794 0.560555
45 3 0.162838 0.889744 0.552209
1481 4 0.192794 0.839019 0.542504
633 2 0.205112 0.88594 0.507979
635 4 0.194453 0.876118 0.541
1204 4 0.173628 0.69248 0.528828
298 4 0.314925 0.842884 0.516386
597 2 0.000100105 0.919331 0.557804
598 4 0.0274086 0.91979 0.534257
1483 4 0.0673604 0.908719 0.523632
1482 2 0.0981348 0.912257 0.542093
1454 4 0.36965 0.0396412 0.586782
1220 4 0.401056 0.0413903 0.573333
998 4 0.352481 0.0300368 0.618395
1219 4 0.435371 0.0224231 0.633867
1218 2 0.418213 0.0319067 0.6036
301 4 0.0489955 0.190313 0.642492
1021 4 0.152634 0.493128 0.522756
996 2 0.345505 0.0502429 0.647437
222 2 0.34489 0.126488 0.595133
224 4 0.365631 0.113246 0.621494
1196 4 0.393947 0.133866 0.631504
1194 2 0.415467 0.162598 0.628069
1195 4 0.436986 0.19133 0.624633
410 4 0.0482374 0.203421 0.608314
408 2 0.0452452 0.177537 0.583384
496 4 0.0952031 0.220684 0.622962
152 4 0.337578 0.262681 0.623656
150 2 0.326434 0.255012 0.657083
1192 4 0.466165 0.184381 0.605348
1191 2 0.486969 0.204657 0.626716
495 2 0.113099 0.25015 0.633539
497 4 0.130995 0.279616 0.644117
1130 4 0.142539 0.315445 0.642876
1352 4 0.326501 0.233625 0.60854
386 4 0.439565 0.30466 0.667762
1514 4 0.310344 0.45468 0.653251
956 4 0.288441 0.456929 0.682018
1512 2 0.324767 0.453373 0.620225
1513 4 0.33919 0.452065 0.5872
614 4 0.40629 0.537232 0.660062
326 4 0.272027 0.549276 0.565893
689 4 0.221101 0.545033 0.612382
1081 4 0.390864 0.534045 0.695185
993 2 0.405071 0.609299 0.553943
994 4 0.412696 0.644532 0.554915
612 2 0.437654 0.520411 0.654253
212 4 0.0319278 0.617654 0.655726
33 3 0.152908 0.644961 0.62884
32 3 0.180229 0.638752 0.675245
35 3 0.133306 0.613293 0.668359
31 1 0.160657 0.623437 0.653266
34 3 0.1771 0.597196 0.640578
688 4 0.212572 0.615352 0.598812
687 2 0.216837 0.580192 0.605596
504 2 0.451801 0.651777 0.649477
505 4 0.462124 0.685585 0.642342
405 2 0.467845 0.677949 0.571687
406 4 0.469629 0.686471 0.606681
839 4 0.0676664 0.803269 0.57349
166 4 0.366295 0.770585 0.689192
837 2 0.0602336 0.834931 0.589068
838 4 0.052801 0.866592 0.604647
701 4 0.0681128 0.880569 0.635671
699 2 0.0978343 0.896419 0.648549
44 3 0.136396 0.851044 0.579629
41 1 0.154044 0.879369 0.582106
42 3 0.135203 0.902513 0.596599
700 4 0.127556 0.912268 0.661426
43 3 0.181268 0.874263 0.600886
333 2 0.219215 0.887747 0.642871
335 4 0.185809 0.875725 0.636555
334 4 0.252621 0.89977 0.649188
1261 4 0.269723 0.914562 0.676883
1203 2 0.173805 0.711376 0.498113
1260 2 0.293825 0.934503 0.658942
1262 4 0.317927 0.954443 0.641002
466 4 0.0851322 0.37681 0.513354
743 4 0.0662853 0.00719083 0.70353
741 2 0.0699591 0.041669 0.693629
742 4 0.073632 0.0761487 0.683726
1199 4 0.366171 0.0903931 0.682355
254 4 0.447579 0.0467293 0.67771
252 2 0.482936 0.042006 0.682996
300 2 0.0546843 0.187739 0.678009
302 4 0.0603734 0.185166 0.713526
997 4 0.33853 0.0704492 0.676479
1197 2 0.400689 0.0826959 0.6894
1198 4 0.435208 0.0749986 0.696444
486 2 0.0606424 0.172557 0.770471
487 4 0.0749307 0.160255 0.739732
470 4 0.317844 0.216761 0.708946
151 4 0.315289 0.247343 0.690511
303 2 0.377453 0.196473 0.725719
305 4 0.400439 0.222582 0.716214
878 4 0.0917397 0.308885 0.748037
1155 2 0.422253 0.697552 0.501447
876 2 0.0995798 0.339268 0.765807
877 4 0.10742 0.369652 0.783578
469 4 0.271334 0.25721 0.746393
468 2 0.294589 0.236985 0.727669
304 4 0.354467 0.170364 0.735224
384 2 0.420322 0.275849 0.677765
385 4 0.40108 0.247038 0.687769
379 4 0.21998 0.40725 0.73847
957 2 0.157466 0.351445 0.68981
959 4 0.177559 0.381362 0.688536
954 2 0.305831 0.425998 0.688443
955 4 0.323222 0.395068 0.694867
745 4 0.413415 0.417977 0.653464
744 2 0.384871 0.401035 0.667557
746 4 0.356326 0.384094 0.68165
399 2 0.469092 0.358898 0.69956
401 4 0.45355 0.341536 0.672038
400 4 0.484634 0.37626 0.727082
1150 4 0.0319275 0.44847 0.707296
214 4 0.260809 0.754252 0.979636
258 2 0.272234 0.475 0.748395
259 4 0.289938 0.451221 0.727863
1291 4 0.44176 0.512189 0.771296
1080 2 0.364113 0.540925 0.672001
1082 4 0.337363 0.547804 0.648817
854 4 0.406052 0.523012 0.764974
398 4 0.3085 0.703366 0.672158
161 4 0.298115 0.585673 0.81206
1039 4 0.397571 0.6188 0.757992
506 4 0.441478 0.61797 0.656612
428 4 0.128002 0.937735 0.9639
396 2 0.301156 0.681158 0.644712
397 4 0.293812 0.658951 0.617265
167 4 0.298685 0.790264 0.704788
165 2 0.33249 0.780425 0.69699
1001 4 0.298968 0.816412 0.763533
463 4 0.303056 0.122281 0.83558
623 4 0.0170431 0.199728 0.809893
488 4 0.0463542 0.184859 0.801211
59 4 0.122355 0.277551 0.759603
1491 2 0.410256 0.200681 0.813923
1492 4 0.435526 0.185395 0.79323
1493 4 0.384987 0.215966 0.834617
958 4 0.137372 0.321528 0.691083
57 2 0.141023 0.257906 0.783394
426 2 0.106953 0.953154 0.988792
1266 2 0.0600992 0.395214 0.802035
1267 4 0.0326726 0.389425 0.824721
1268 4 0.0875263 0.401003 0.779348
378 2 0.226915 0.397224 0.772408
380 4 0.233851 0.387197 0.806345
592 4 0.268316 0.385143 0.8034
591 2 0.302452 0.385578 0.815014
934 4 0.348053 0.390106 0.762646
933 2 0.381942 0.402431 0.762366
935 4 0.415831 0.414756 0.762087
593 4 0.336589 0.386013 0.826628
1028 4 0.421553 0.417607 0.802198
1026 2 0.436246 0.406311 0.833134
1149 2 0.0349201 0.457529 0.742073
1151 4 0.0379121 0.466589 0.776849
545 4 0.00917202 0.461896 0.803343
260 4 0.254531 0.498778 0.768927
1290 2 0.442762 0.476249 0.774072
1292 4 0.443762 0.440307 0.776849
296 4 0.160288 0.530463 0.763929
185 4 0.108592 0.52336 0.823937
183 2 0.112262 0.49984 0.851024
751 4 0.0731954 0.523339 0.83214
295 4 0.220287 0.490736 0.759093
294 2 0.190287 0.5106 0.761511
160 4 0.234498 0.562867 0.786872
852 2 0.388623 0.545211 0.787421
853 4 0.371195 0.56741 0.809868
97 4 0.341111 0.548433 0.814156
96 2 0.335196 0.527536 0.842943
171 2 0.997115 0.621444 0.815074
173 4 0.032659 0.617028 0.819258
752 4 0.0353723 0.581098 0.811285
750 2 0.0542838 0.552219 0.821712
77 4 0.178045 0.659987 0.828549
766 4 0.189636 0.662292 0.861814
159 2 0.266306 0.57427 0.799466
1038 2 0.379026 0.627794 0.787583
1040 4 0.360482 0.636789 0.817174
575 4 0.347028 0.653201 0.846893
710 4 0.111998 0.701425 0.76014
708 2 0.124529 0.73318 0.748521
1406 4 0.118347 0.713415 0.806483
76 4 0.137364 0.695755 0.780933
75 2 0.157704 0.677871 0.804741
709 4 0.137059 0.764935 0.736903
433 4 0.136429 0.777976 0.773157
434 4 0.202654 0.799631 0.791785
432 2 0.169541 0.788804 0.782472
1000 4 0.230692 0.824791 0.785206
999 2 0.26483 0.820602 0.77437
886 4 0.407677 0.876722 0.742914
885 2 0.433412 0.896649 0.758438
535 4 0.137076 0.950871 0.725506
534 2 0.106137 0.969395 0.725351
536 4 0.075198 0.987917 0.725197
887 4 0.459148 0.916576 0.773963
1347 2 0.991775 0.166734 0.918141
1349 4 0.0103392 0.150287 0.891963
462 2 0.33415 0.127425 0.853106
464 4 0.365243 0.13257 0.870631
137 4 0.257918 0.408217 0.525785
145 4 0.0777928 0.276262 0.9004
891 2 0.0896263 0.205809 0.905143
893 4 0.0834893 0.170379 0.907867
643 4 0.22364 0.157794 0.817748
642 2 0.240749 0.182582 0.797918
644 4 0.257857 0.20737 0.778087
144 2 0.0503256 0.288375 0.920382
58 4 0.15969 0.238261 0.807184
892 4 0.0957634 0.24124 0.902419
1007 4 0.121726 0.297245 0.90022
1005 2 0.124361 0.315692 0.869346
1384 4 0.354818 0.310361 0.857694
1383 2 0.359287 0.346028 0.854817
791 4 0.0404337 0.411438 0.851956
1006 4 0.126995 0.334139 0.838473
1517 4 0.231919 0.421487 0.88097
1516 4 0.195223 0.380442 0.927557
1515 2 0.213571 0.400965 0.904263
797 4 0.253615 0.418885 0.914825
795 2 0.282525 0.411629 0.935123
1385 4 0.363756 0.381695 0.851939
1027 4 0.450939 0.395015 0.864068
107 4 0.472805 0.380399 0.887685
790 4 0.0217373 0.437222 0.916665
789 2 0.0310855 0.42433 0.88431
1332 2 0.104766 0.504283 0.933747
184 4 0.115932 0.47632 0.878112
1334 4 0.0925846 0.486166 0.905046
951 2 0.349196 0.459069 0.91036
953 4 0.35522 0.446163 0.877231
1391 4 0.140091 0.927777 0.928123
105 2 0.500853 0.39508 0.904954
236 4 0.245213 0.577648 0.904064
234 2 0.277401 0.593899 0.903603
98 4 0.329282 0.506639 0.871731
1042 4 0.0106489 0.616163 0.904144
1201 4 0.105739 0.641615 0.917982
767 4 0.14079 0.617681 0.890543
765 2 0.165213 0.639986 0.876178
1439 4 0.108518 0.608314 0.893177
235 4 0.309589 0.610151 0.903142
573 2 0.369511 0.652493 0.875078
574 4 0.391993 0.651786 0.903264
1200 2 0.107954 0.677105 0.911982
1202 4 0.11017 0.712595 0.905981
1405 4 0.0868073 0.717905 0.871188
1404 2 0.102577 0.71566 0.838835
1355 4 0.145436 0.724275 0.919151
1354 4 0.193012 0.744324 0.868789
1353 2 0.169224 0.7343 0.89397
197 4 0.034477 0.771954 0.894655
473 4 0.0508956 0.806121 0.902676
471 2 0.0802165 0.823976 0.891633
1511 4 0.276613 0.790476 0.877789
1510 4 0.223101 0.752067 0.848416
1509 2 0.249857 0.771271 0.863102
82 4 0.19869 0.824187 0.947746
1421 4 0.452046 0.815023 0.902533
1434 2 0.0380564 0.900942 0.907644
1435 4 0.0527926 0.909731 0.875926
190 4 0.137903 0.863239 0.875907
1390 4 0.0891227 0.906828 0.881592
472 4 0.109537 0.841831 0.880591
110 4 0.415385 0.816323 0.901704
1389 2 0.114607 0.917302 0.904858
1427 4 0.00266553 0.0124681 0.922299
616 4 0.315038 0.130649 0.938312
1346 4 0.303033 0.310424 0.967188
9 3 0.460123 0.0693742 0.000332652
1037 4 0.101735 0.188464 0.995648
615 2 0.329698 0.156779 0.95838
1118 4 0.455111 0.243652 0.985576
617 4 0.344358 0.182908 0.978448
1302 2 0.342303 0.238951 0.997398
1146 2 0.0181298 0.49035 0.984867
357 2 0.395099 0.324024 0.987846
1303 4 0.341251 0.273943 0.988749
359 4 0.370014 0.298781 0.982019
358 4 0.420183 0.349267 0.993674
796 4 0.311435 0.404373 0.955419
1344 2 0.317591 0.343374 0.965521
1345 4 0.332149 0.376324 0.963854
241 4 0.205253 0.415973 0.979904
240 2 0.217107 0.448212 0.990882
952 4 0.343171 0.471975 0.94349
1148 4 0.0536353 0.486955 0.979551
1333 4 0.116948 0.522401 0.962449
1061 4 0.236479 0.553224 0.932546
1059 2 0.203683 0.561287 0.919902
1060 4 0.170887 0.569349 0.907259
1041 2 0.0459461 0.6229 0.901122
1043 4 0.0812429 0.629637 0.8981
1437 2 0.121957 0.585913 0.918037
1438 4 0.135396 0.563514 0.942898
1020 2 0.178385 0.516864 0.531351
230 4 0.0774965 0.400714 0.546323
910 4 0.0812106 0.842559 0.979418
108 2 0.380078 0.823633 0.901054
189 2 0.163864 0.854489 0.899355
347 4 0.27693 0.708396 0.542182
191 4 0.189826 0.845738 0.922803
83 4 0.244306 0.789731 0.991718
81 2 0.221497 0.806959 0.969732
1419 2 0.476608 0.834612 0.920236
8 3 0.447331 0.122093 0.992483
1362 2 0.478328 0.174977 0.995098
1363 4 0.492597 0.201653 0.975473
1234 4 0.577099 0.129822 0.0693651
894 2 0.621567 0.554006 0.00532865
1052 4 0.606941 0.0474178 0.0615397
1050 2 0.576369 0.0426239 0.0430247
1051 4 0.545797 0.0378296 0.0245102
1097 4 0.87875 0.0064031 0.117805
169 4 0.909271 0.109996 0.0847968
168 2 0.916168 0.140454 0.0667651
1233 2 0.593169 0.151147 0.0451284
446 4 0.901528 0.562902 0.44529
246 2 0.537122 0.240136 0.0102369
368 4 0.520144 0.857749 0.423483
1490 4 0.797961 0.156612 0.0750131
1252 4 0.911731 0.195652 0.0233108
170 4 0.923065 0.170912 0.0487333
248 4 0.555118 0.269458 0.0210444
1494 2 0.549869 0.332719 0.00569942
339 2 0.511103 0.720626 0.323257
624 2 0.702592 0.305185 0.0726381
936 2 0.527156 0.411448 0.0261081
937 4 0.501979 0.389096 0.0390286
1495 4 0.549442 0.368207 0.0120912
134 4 0.608835 0.39999 0.0503571
626 4 0.733913 0.312727 0.0564362
1182 2 0.757716 0.367348 0.0915938
1184 4 0.744361 0.334937 0.0831362
1183 4 0.771072 0.39976 0.100051
1085 4 0.956073 0.436389 0.0181653
974 4 0.903377 0.212669 0.435001
84 2 0.951773 0.478945 0.0327587
85 4 0.939893 0.448244 0.047481
895 4 0.611765 0.563857 0.038604
1093 4 0.581625 0.564522 0.0568133
1270 4 0.718035 0.620883 0.0269043
86 4 0.963654 0.509645 0.0180367
1392 2 0.987312 0.0632717 0.124422
1092 2 0.552827 0.585541 0.051407
1094 4 0.524027 0.60656 0.0460008
1269 2 0.722997 0.604522 0.058655
1271 4 0.727959 0.588161 0.090406
523 4 0.974484 0.280986 0.231162
1443 2 0.829967 0.70718 0.069724
1445 4 0.830001 0.729756 0.0416045
1444 4 0.829933 0.684603 0.0978441
805 4 0.995142 0.264327 0.13075
772 4 0.631625 0.845155 0.0156357
771 2 0.611703 0.859867 0.0418475
693 2 0.645981 0.990728 0.0681539
694 4 0.655576 0.956576 0.0616738
695 4 0.636386 0.0248807 0.074634
1096 4 0.852144 0.0314339 0.055618
1095 2 0.865447 0.0189184 0.0867114
1393 4 0.987458 0.033431 0.104175
1034 4 0.971185 0.00232014 0.0926529
529 4 0.51753 0.173779 0.121124
1441 4 0.880392 0.0868992 0.141165
985 4 0.541638 0.146828 0.118959
984 2 0.577559 0.14367 0.118685
986 4 0.613481 0.140512 0.11841
1488 2 0.827708 0.171049 0.0894039
1489 4 0.857455 0.185487 0.103795
1104 2 0.679844 0.31556 0.1552
1105 4 0.672831 0.300026 0.123421
770 4 0.742803 0.281573 0.15444
625 4 0.671271 0.297642 0.0888397
1504 4 0.000905433 0.30296 0.126177
1505 4 0.944302 0.328743 0.162686
1503 2 0.972604 0.315852 0.144432
1106 4 0.686857 0.331095 0.186979
132 2 0.625204 0.395009 0.0821011
133 4 0.641572 0.390029 0.113845
1277 4 0.630857 0.406072 0.14323
605 4 0.803299 0.39044 0.114327
603 2 0.802706 0.42409 0.12728
604 4 0.802112 0.457739 0.140233
128 4 0.620483 0.518165 0.16555
419 4 0.785312 0.505752 0.146312
418 4 0.76063 0.573403 0.142349
417 2 0.772971 0.539578 0.144331
483 2 0.846771 0.53551 0.130517
485 4 0.815177 0.520802 0.139785
484 4 0.878364 0.550219 0.121248
705 2 0.57112 0.622677 0.162086
706 4 0.58812 0.646745 0.141297
707 4 0.55412 0.598609 0.182874
1120 4 0.705475 0.610805 0.108795
1119 2 0.702137 0.627041 0.140821
562 4 0.861565 0.69139 0.122811
561 2 0.89613 0.695624 0.132178
563 4 0.930696 0.699859 0.141544
539 4 0.967977 0.649385 0.197551
363 2 0.796175 0.76758 0.10597
1175 4 0.773112 0.787907 0.147734
364 4 0.782633 0.755082 0.136968
365 4 0.809718 0.780077 0.0749732
702 2 0.990995 0.726511 0.4774
628 4 0.977494 0.692268 0.179619
773 4 0.59178 0.874579 0.0680595
1305 2 0.675713 0.86601 0.186746
1307 4 0.697439 0.859292 0.158759
991 4 0.716841 0.883052 0.138104