ITEM: TIMESTEP
377500
ITEM: NUMBER OF ATOMS
1520
ITEM: BOX BOUNDS pp pp pp
-6.9326749999999997e+00 6.9326749999999997e+00
-6.9326749999999997e+00 6.9326749999999997e+00
-6.9326749999999997e+00 6.9326749999999997e+00
ITEM: ATOMS id type xs ys zs
876 2 0.0222742 0.0435699 0.0299634
878 4 0.0509726 0.0487821 0.0511681
648 2 0.159008 0.0530837 0.998824
649 4 0.159485 0.0347044 0.0298459
1250 4 0.178809 0.0274909 0.0595802
630 2 0.0213035 0.145067 0.0109599
632 4 0.0543109 0.131531 0.00569582
1372 4 0.140843 0.103392 0.0803898
556 4 0.12157 0.226602 0.0883422
555 2 0.115793 0.236346 0.0541068
557 4 0.110016 0.246092 0.0198708
157 4 0.306839 0.328781 0.0542463
124 4 0.00965347 0.529404 0.462338
1144 4 0.330504 0.316074 0.0250097
156 2 0.316726 0.308962 0.0827043
1206 2 0.465122 0.32356 0.0609276
1208 4 0.485973 0.294769 0.0669873
381 2 0.420867 0.399707 0.0595203
1207 4 0.444271 0.352352 0.0548678
417 2 0.0257631 0.476384 0.0623777
419 4 0.00869747 0.456111 0.0379198
382 4 0.427036 0.433423 0.0483113
241 4 0.43547 0.447328 0.0126785
314 4 0.0568325 0.590363 0.996365
418 4 0.0428281 0.496658 0.0868352
860 4 0.0215777 0.528506 0.0696953
858 2 0.0268181 0.553816 0.0445483
663 2 0.271295 0.558726 0.0670657
15 3 0.323575 0.549055 0.0132125
11 1 0.339573 0.571365 0.0312433
14 3 0.346446 0.598303 0.012615
508 4 0.376311 0.596442 0.0411405
12 3 0.368064 0.558266 0.042078
1026 2 0.474114 0.547306 0.00287604
1027 4 0.461178 0.564243 0.0319657
859 4 0.0320585 0.579126 0.0194013
664 4 0.293474 0.557727 0.0386493
13 3 0.320985 0.580169 0.0576413
507 2 0.409776 0.586997 0.0506967
509 4 0.443241 0.577552 0.0602522
432 2 0.131924 0.742381 0.0140344
433 4 0.16177 0.736871 0.0335088
938 4 0.164132 0.715848 0.0671218
852 2 0.358741 0.697856 0.046426
854 4 0.383769 0.700699 0.0206197
853 4 0.333714 0.695013 0.0722321
1389 2 0.052345 0.76223 0.0103796
1390 4 0.0373784 0.794439 0.0166261
922 4 0.00772295 0.813864 0.0196622
1421 4 0.182567 0.788576 0.0559737
244 4 0.204535 0.774029 0.0834446
1361 4 0.378386 0.78356 0.0237998
1359 2 0.361127 0.785909 0.0553753
142 4 0.357938 0.80468 0.0102577
1260 2 0.409533 0.939498 0.443224
1270 4 0.437054 0.822502 0.0152038
300 2 0.478341 0.774983 0.032149
301 4 0.447825 0.794147 0.0335405
118 4 0.055421 0.892832 0.0581786
117 2 0.0263674 0.905423 0.0754348
849 2 0.305689 0.91567 0.0655457
850 4 0.323748 0.88451 0.0673642
1269 2 0.438573 0.855723 0.0291467
797 4 0.474535 0.878232 0.0535639
1271 4 0.440093 0.888945 0.0430897
493 4 0.0450481 0.979688 0.0257557
492 2 0.0760575 0.986133 0.0429985
929 4 0.0232408 0.944795 0.0221178
1248 2 0.156943 0.99917 0.0550797
494 4 0.107067 0.992578 0.0602411
1249 4 0.135078 0.97085 0.0505789
851 4 0.287631 0.946831 0.0637275
1499 4 0.452636 0.980093 0.997125
787 4 0.429048 0.00950051 0.0527041
777 2 0.117665 0.0183803 0.145363
779 4 0.141999 0.0437653 0.153356
1381 4 0.233427 0.0751973 0.156266
280 4 0.43346 0.0795942 0.16941
1373 4 0.0809279 0.121366 0.116288
1371 2 0.110885 0.112379 0.0983389
160 4 0.169888 0.219163 0.120813
469 4 0.162184 0.251173 0.103851
159 2 0.19755 0.204817 0.138963
161 4 0.225212 0.190472 0.157114
697 4 0.406543 0.173582 0.0713999
698 4 0.370622 0.21587 0.117476
696 2 0.388582 0.194726 0.094438
358 4 0.389253 0.247971 0.130451
470 4 0.121539 0.306691 0.12547
468 2 0.141862 0.278932 0.114661
403 4 0.316116 0.314154 0.13325
158 4 0.326614 0.289142 0.111162
66 2 0.0143902 0.354941 0.148142
67 4 0.0495083 0.362892 0.146167
448 4 0.113201 0.363823 0.176669
997 4 0.181924 0.425914 0.0981899
996 2 0.194905 0.392699 0.103546
998 4 0.207885 0.359484 0.108902
383 4 0.414697 0.365992 0.0707289
932 4 0.130472 0.495411 0.171851
1313 4 0.12314 0.464138 0.150969
1311 2 0.137317 0.485794 0.12586
1141 4 0.144922 0.531746 0.1254
1312 4 0.151494 0.50745 0.100751
1140 2 0.155667 0.563118 0.139568
665 4 0.249116 0.559726 0.0954818
609 2 0.212125 0.511877 0.115503
611 4 0.192126 0.493769 0.139431
610 4 0.232125 0.529984 0.091575
130 4 0.354392 0.586846 0.156495
804 2 0.0818786 0.679132 0.117805
806 4 0.0704545 0.650407 0.136372
1142 4 0.166412 0.59449 0.153735
937 4 0.181726 0.65078 0.0927784
76 4 0.305338 0.655253 0.0961674
247 4 0.27744 0.672703 0.0829464
77 4 0.338456 0.599953 0.12852
75 2 0.321897 0.627603 0.112344
131 4 0.424794 0.574253 0.147192
129 2 0.389593 0.580549 0.151843
334 4 0.463699 0.674825 0.125033
333 2 0.450569 0.641249 0.125849
335 4 0.437439 0.607673 0.126665
805 4 0.0933025 0.707858 0.0992378
936 2 0.172929 0.683314 0.0799502
248 4 0.229519 0.672257 0.136845
246 2 0.25348 0.67248 0.109896
718 4 0.215977 0.69519 0.161423
1119 2 0.466208 0.749204 0.106189
1121 4 0.474324 0.717623 0.0907874
1420 4 0.126466 0.795989 0.100688
1419 2 0.154516 0.792283 0.0783308
1241 4 0.138098 0.782654 0.134027
245 4 0.243236 0.734894 0.130053
243 2 0.223886 0.754461 0.106749
1360 4 0.343869 0.788257 0.0869513
1120 4 0.458092 0.780785 0.12159
1187 4 0.433082 0.769223 0.144857
1185 2 0.43093 0.800113 0.163338
888 2 0.108141 0.874771 0.155968
890 4 0.136632 0.866597 0.13543
795 2 0.482095 0.905299 0.076161
778 4 0.0933321 0.992995 0.137369
773 4 0.270565 0.971949 0.153671
771 2 0.288688 0.9634 0.123689
772 4 0.30681 0.954851 0.093707
788 4 0.465165 0.991342 0.112432
786 2 0.447106 0.000421476 0.082568
1317 2 0.057567 0.0653096 0.219965
1319 4 0.0811316 0.0701552 0.193101
1382 4 0.251784 0.0104358 0.182162
989 4 0.202578 0.0613221 0.255468
1380 2 0.242606 0.0428166 0.169214
279 2 0.427165 0.0442128 0.172402
281 4 0.42087 0.00883168 0.175395
1344 2 0.478392 0.997114 0.231448
1345 4 0.491445 0.018943 0.257012
425 4 0.0154823 0.113266 0.204476
1176 2 0.509362 0.14321 0.188349
1178 4 0.482938 0.119154 0.183501
217 4 0.112335 0.226521 0.24713
524 4 0.250864 0.171438 0.18113
522 2 0.286006 0.167475 0.174078
523 4 0.321149 0.163513 0.167027
104 4 0.447926 0.248732 0.206482
891 2 0.067504 0.322184 0.210253
893 4 0.0450567 0.302405 0.230387
218 4 0.0669063 0.275472 0.219897
216 2 0.0896206 0.250997 0.233513
402 2 0.312904 0.314862 0.16916
404 4 0.309693 0.31557 0.205071
357 2 0.405683 0.257832 0.161
359 4 0.422113 0.267692 0.191549
102 2 0.473747 0.268626 0.221908
899 4 0.502829 0.31169 0.210101
892 4 0.0899512 0.341961 0.19012
447 2 0.139896 0.346106 0.193218
449 4 0.166592 0.328389 0.209768
329 4 0.177819 0.321552 0.248898
1500 2 0.038785 0.485224 0.228363
931 4 0.0732592 0.518965 0.208913
1502 4 0.034554 0.515198 0.208766
683 4 0.0505704 0.597907 0.267505
930 2 0.101866 0.507189 0.190382
180 2 0.295885 0.588362 0.181702
182 4 0.319754 0.568283 0.163603
164 4 0.476303 0.589318 0.249999
682 4 0.0709846 0.630545 0.206516
681 2 0.0607776 0.614226 0.23701
992 4 0.196916 0.581803 0.164338
990 2 0.216795 0.587682 0.193845
991 4 0.236674 0.593561 0.223351
181 4 0.272017 0.608441 0.1998
673 4 0.283667 0.60706 0.231911
717 2 0.210138 0.710468 0.193562
719 4 0.2043 0.725747 0.2257
1240 4 0.0939636 0.760384 0.186542
1239 2 0.116031 0.771519 0.160285
467 4 0.230693 0.753103 0.226891
1339 4 0.339977 0.80488 0.191035
1186 4 0.428778 0.831004 0.181819
116 4 0.0837997 0.880257 0.231426
889 4 0.07965 0.882946 0.176507
114 2 0.105185 0.909033 0.227551
1180 4 0.232988 0.873862 0.206338
856 4 0.217933 0.907026 0.20233
1179 2 0.252158 0.885521 0.234569
1338 2 0.352731 0.838216 0.196176
1078 4 0.369983 0.896995 0.171576
1340 4 0.365484 0.871553 0.201316
569 4 0.466195 0.830712 0.185784
567 2 0.465744 0.844439 0.219127
115 4 0.126569 0.93781 0.223677
857 4 0.157981 0.946452 0.209615
855 2 0.187957 0.926739 0.205972
250 4 0.355096 0.98291 0.182095
249 2 0.339428 0.994262 0.212526
1077 2 0.336927 0.910552 0.176465
1079 4 0.30387 0.924108 0.181354
191 4 0.391361 0.928836 0.232949
1346 4 0.46534 0.975285 0.205883
190 4 0.457295 0.902251 0.2208
189 2 0.424328 0.915543 0.226875
1318 4 0.0340022 0.0604641 0.246828
988 4 0.131864 0.0583847 0.269342
987 2 0.167221 0.0598533 0.262405
1135 4 0.271828 0.038673 0.336448
251 4 0.32376 0.00561452 0.242958
391 4 0.338786 0.00491487 0.325648
965 4 0.286729 0.235001 0.319029
963 2 0.254214 0.243338 0.332209
223 4 0.486078 0.269381 0.313219
222 2 0.471855 0.236832 0.319438
761 4 0.0345812 0.302828 0.297068
759 2 0.0149201 0.278116 0.314481
1446 2 0.0497215 0.36055 0.279463
1447 4 0.0747676 0.385844 0.27369
328 4 0.134102 0.366493 0.284545
327 2 0.15596 0.344023 0.266722
18 3 0.379893 0.376233 0.253474
20 3 0.351301 0.360326 0.296813
16 1 0.380701 0.370691 0.286467
17 3 0.388355 0.399033 0.30192
19 3 0.404047 0.347812 0.29364
231 2 0.0535378 0.449118 0.313156
233 4 0.0509208 0.461278 0.279309
1501 4 0.0430164 0.455249 0.247958
254 4 0.374402 0.429974 0.31297
253 4 0.407593 0.491041 0.293714
252 2 0.390997 0.460508 0.303342
693 2 0.464954 0.485444 0.271505
695 4 0.435922 0.467816 0.283621
1504 4 0.0160859 0.583144 0.267361
1063 4 0.143137 0.509327 0.311849
826 4 0.161436 0.523532 0.282839
825 2 0.17695 0.549303 0.302729
827 4 0.192464 0.575074 0.322619
680 4 0.210795 0.603743 0.333551
674 4 0.241342 0.635177 0.283094
672 2 0.262505 0.621119 0.257502
1457 4 0.311608 0.60013 0.254911
484 4 0.265583 0.657551 0.299828
1456 4 0.367218 0.623102 0.294679
1455 2 0.339413 0.611616 0.274795
872 4 0.38791 0.641423 0.271069
871 4 0.448434 0.613221 0.243809
870 2 0.418172 0.627322 0.257439
465 2 0.260753 0.740682 0.242466
466 4 0.290812 0.728261 0.258041
1160 4 0.323309 0.720397 0.269699
483 2 0.290205 0.680757 0.312305
485 4 0.314826 0.703964 0.324782
1158 2 0.348873 0.7291 0.293598
1159 4 0.374437 0.737802 0.317496
783 2 0.482332 0.71803 0.27633
785 4 0.467736 0.749865 0.26773
93 2 0.0341315 0.894109 0.28069
95 4 0.0598468 0.883076 0.257944
94 4 0.00841607 0.905141 0.303436
185 4 0.161344 0.832902 0.32568
183 2 0.14422 0.854093 0.349304
747 2 0.226456 0.916029 0.3015
748 4 0.237362 0.890647 0.278322
1181 4 0.271328 0.897181 0.262799
619 4 0.416814 0.839847 0.320213
1030 4 0.378708 0.917904 0.268472
568 4 0.465292 0.858167 0.25247
618 2 0.425733 0.858084 0.290409
620 4 0.434653 0.876321 0.260605
749 4 0.21555 0.941411 0.324678
1029 2 0.372059 0.947866 0.287406
1031 4 0.365411 0.977828 0.30634
1225 4 0.0899814 0.0382856 0.397794
1224 2 0.0642454 0.0563809 0.380169
1226 4 0.0385094 0.0744758 0.362544
584 4 0.0626265 0.988514 0.353805
1134 2 0.255542 0.0153972 0.358661
392 4 0.323811 0.0702961 0.352158
390 2 0.331298 0.0376055 0.338903
1105 4 0.351507 0.0655569 0.374303
714 2 0.466379 0.0881087 0.364244
601 4 0.438079 0.039876 0.416583
715 4 0.451256 0.0653818 0.387808
1104 2 0.34972 0.0913091 0.399483
716 4 0.481502 0.110835 0.340681
1449 2 0.0190217 0.228909 0.39063
1451 4 0.00644525 0.252525 0.366452
964 4 0.221699 0.251675 0.345388
1118 4 0.191099 0.210091 0.426092
1116 2 0.188286 0.224111 0.392987
1117 4 0.185474 0.23813 0.359882
224 4 0.457631 0.204283 0.325658
1261 4 0.382116 0.960181 0.432228
325 4 0.4035 0.324812 0.358491
324 2 0.372801 0.329052 0.376931
973 4 0.206972 0.342351 0.351902
974 4 0.189505 0.402759 0.38722
972 2 0.198238 0.372555 0.369561
326 4 0.342103 0.333293 0.395372
232 4 0.0561551 0.436958 0.347004
1252 4 0.0807741 0.477963 0.389643
1251 2 0.108351 0.473953 0.41253
1062 2 0.123275 0.49191 0.336396
1064 4 0.103413 0.474493 0.360943
187 4 0.0662873 0.580899 0.426945
1122 2 0.0307979 0.63415 0.387971
1124 4 0.0560515 0.616487 0.406699
736 4 0.0551443 0.669575 0.435821
362 4 0.0959051 0.624731 0.381601
360 2 0.126534 0.627942 0.36284
361 4 0.157162 0.631154 0.344079
678 2 0.24504 0.592972 0.330126
679 4 0.279284 0.582202 0.326701
829 4 0.0726398 0.7306 0.350356
828 2 0.071335 0.703226 0.373795
830 4 0.0700299 0.675852 0.397235
1101 2 0.323571 0.695253 0.390644
1103 4 0.331873 0.705967 0.357227
98 4 0.386048 0.824249 0.328619
96 2 0.380649 0.790128 0.338965
97 4 0.37525 0.756007 0.34931
176 4 0.0120401 0.877163 0.396497
184 4 0.127097 0.875284 0.372929
583 4 0.117902 0.950998 0.380985
582 2 0.0902641 0.969756 0.367395
1136 4 0.239256 0.992121 0.380873
474 2 0.382192 0.960543 0.369716
475 4 0.361093 0.967153 0.341228
476 4 0.403291 0.953933 0.398204
520 4 0.0828541 0.00743994 0.425179
521 4 0.136257 0.0336483 0.46596
519 2 0.109555 0.0205437 0.445569
1066 4 0.0090886 0.295034 0.449044
1123 4 0.00554412 0.651813 0.369245
43 3 0.163299 0.0541892 0.483593
42 3 0.203929 0.018966 0.49045
45 3 0.165176 0.00827816 0.454655
41 1 0.18322 0.0321761 0.468149
44 3 0.201189 0.0476394 0.444528
896 4 0.413499 0.0398951 0.497646
600 2 0.43722 0.0509339 0.450897
602 4 0.436362 0.0619923 0.48521
510 2 0.0715154 0.158106 0.424649
512 4 0.103113 0.141185 0.420696
1106 4 0.347932 0.117061 0.424663
1485 2 0.0163713 0.217251 0.469136
1486 4 0.0290298 0.231261 0.438414
1450 4 0.0315981 0.205295 0.414807
511 4 0.0399176 0.175027 0.428602
1267 4 0.387403 0.219488 0.438862
833 4 0.471486 0.240106 0.510508
1384 4 0.0183227 0.321653 0.420966
1383 2 0.0538376 0.325895 0.425562
1001 4 0.0995603 0.360749 0.452042
56 4 0.337312 0.295145 0.497013
1268 4 0.362534 0.267923 0.486162
1266 2 0.374969 0.243705 0.462512
727 4 0.477154 0.275916 0.460376
1385 4 0.0893524 0.330137 0.430158
1000 4 0.169212 0.346408 0.464069
999 2 0.134386 0.353579 0.458056
549 2 0.301386 0.357884 0.451477
550 4 0.319021 0.34558 0.422529
551 4 0.28375 0.370188 0.480427
29 3 0.250477 0.358034 0.496348
1253 4 0.135929 0.469942 0.435417
911 4 0.255782 0.500939 0.475755
874 4 0.442864 0.508977 0.438636
1466 4 0.131104 0.495616 0.47445
188 4 0.123857 0.600328 0.465801
186 2 0.0950725 0.590613 0.446373
909 2 0.234058 0.526907 0.48817
960 2 0.402013 0.531384 0.46809
961 4 0.409557 0.516784 0.435991
962 4 0.394469 0.545983 0.500188
873 2 0.473161 0.521066 0.423263
1329 2 0.315268 0.928986 0.467643
345 2 0.311641 0.595029 0.46509
346 4 0.308446 0.578824 0.433034
735 2 0.0908001 0.671489 0.44086
737 4 0.126456 0.673404 0.445899
1102 4 0.315268 0.684539 0.424061
950 4 0.325523 0.682035 0.460703
948 2 0.340687 0.683863 0.49337
174 2 0.0345006 0.865815 0.422328
1161 2 0.0985874 0.866395 0.494487
175 4 0.0569606 0.854467 0.448157
1162 4 0.0879143 0.872399 0.460568
1331 4 0.31637 0.915464 0.434231
1262 4 0.436951 0.918816 0.45422
1330 4 0.314166 0.942508 0.501055
1448 4 0.0246758 0.335256 0.285237
1464 2 0.108107 0.509562 0.498472
517 4 0.287287 0.985849 0.49274
293 4 0.260037 0.575588 0.0117075
1391 4 0.0673124 0.730022 0.00413333
565 4 0.140918 0.0444119 0.566465
564 2 0.131802 0.0489013 0.531865
464 4 0.169363 0.0428607 0.550705
462 2 0.203212 0.0304284 0.550509
463 4 0.237062 0.0179959 0.550313
572 4 0.318701 0.0607946 0.528795
895 4 0.346817 0.0390025 0.525111
894 2 0.380158 0.0394491 0.511378
63 2 0.479138 0.0566681 0.542438
1497 2 0.437383 0.969843 0.966097
676 4 0.027995 0.0914449 0.552061
154 4 0.0312295 0.117878 0.57246
675 2 0.0136659 0.0831839 0.520017
802 4 0.142396 0.103212 0.52323
801 2 0.130937 0.136701 0.530129
803 4 0.119478 0.170191 0.537028
1396 4 0.312355 0.147544 0.576983
570 2 0.323645 0.0884576 0.551394
571 4 0.328589 0.11612 0.573993
64 4 0.452808 0.0702086 0.521851
204 2 0.105568 0.223986 0.551831
206 4 0.10271 0.190344 0.564497
1395 2 0.304604 0.179575 0.562343
1397 4 0.296856 0.211612 0.547706
370 4 0.335506 0.223123 0.542587
959 4 0.277686 0.238761 0.571071
55 4 0.306086 0.251047 0.54479
394 4 0.316816 0.230213 0.577931
369 2 0.370681 0.216205 0.538642
371 4 0.405852 0.209289 0.534698
831 2 0.485727 0.21067 0.525711
205 4 0.108425 0.257629 0.539164
957 2 0.249698 0.26127 0.567811
958 4 0.221713 0.283779 0.564548
54 2 0.321698 0.273099 0.5209
1285 4 0.440144 0.318744 0.540188
1284 2 0.468143 0.30528 0.521879
1286 4 0.496142 0.291817 0.503571
384 2 0.0114225 0.406732 0.593202
27 3 0.29154 0.357378 0.531728
28 3 0.283502 0.401502 0.501283
670 4 0.275876 0.372692 0.560476
30 3 0.248827 0.388768 0.541086
26 1 0.268391 0.376559 0.517698
1245 2 0.401767 0.359374 0.530701
1247 4 0.377666 0.369408 0.505825
1246 4 0.425869 0.349338 0.555577
1076 4 0.503581 0.38318 0.521709
1074 2 0.481679 0.404865 0.54043
386 4 0.00997191 0.439512 0.578242
305 4 0.105434 0.416241 0.57901
1075 4 0.459777 0.42655 0.559151
1465 4 0.0851098 0.523509 0.522493
1365 2 0.0315997 0.527342 0.548892
1367 4 0.0607944 0.508235 0.539783
1130 4 0.464918 0.528517 0.938547
910 4 0.212335 0.552876 0.500584
1040 4 0.392287 0.507008 0.565349
367 4 0.428142 0.577553 0.509079
617 4 0.431794 0.527958 0.511385
615 2 0.460508 0.525407 0.533051
616 4 0.489223 0.522858 0.554718
347 4 0.314836 0.611234 0.497146
213 2 0.248106 0.60848 0.563973
215 4 0.258422 0.587889 0.536225
366 2 0.404271 0.597026 0.527824
368 4 0.380399 0.6165 0.546568
1453 4 0.398237 0.620227 0.577958
1258 4 0.183981 0.681429 0.500205
1257 2 0.205031 0.659529 0.51964
1259 4 0.226081 0.63763 0.539076
949 4 0.35585 0.68569 0.526037
1152 2 0.352466 0.731756 0.556231
1154 4 0.351801 0.695803 0.558927
1153 4 0.353131 0.767711 0.553535
1413 2 0.409129 0.790027 0.572319
1415 4 0.373526 0.795014 0.569491
1414 4 0.444731 0.78504 0.575147
428 4 0.0920465 0.860374 0.578316
1163 4 0.10926 0.860391 0.528405
1013 4 0.00722443 0.828501 0.731967
516 2 0.254957 0.992286 0.50736
1398 2 0.0761919 0.0704011 0.642228
1399 4 0.0883257 0.0469693 0.617649
1418 4 0.247369 0.0185949 0.615159
1416 2 0.280882 0.0257112 0.603905
1417 4 0.314395 0.0328276 0.592651
153 2 0.0290368 0.124601 0.60782
155 4 0.0268442 0.131324 0.643182
296 4 0.179098 0.146775 0.606954
881 4 0.179076 0.145751 0.642699
317 4 0.37155 0.103855 0.561512
315 2 0.394525 0.125331 0.579157
1010 4 0.414541 0.136499 0.632599
316 4 0.4175 0.146807 0.596802
295 4 0.237042 0.189213 0.600384
294 2 0.208069 0.167994 0.603669
393 2 0.314455 0.241837 0.611991
1008 2 0.435323 0.163231 0.645007
1378 4 0.0115871 0.262653 0.602493
1377 2 0.0445802 0.274044 0.611552
1379 4 0.0775736 0.285436 0.620612
395 4 0.312091 0.253461 0.646045
1294 4 0.445701 0.277384 0.670199
732 2 0.501378 0.289708 0.626801
733 4 0.475388 0.284534 0.651258
385 4 0.0128734 0.373953 0.608161
669 2 0.286733 0.378873 0.594304
671 4 0.297591 0.385055 0.628132
304 4 0.0758646 0.430479 0.643232
303 2 0.0906496 0.42336 0.611121
460 4 0.177756 0.475665 0.637428
775 4 0.296424 0.453089 0.683785
1038 2 0.398497 0.503556 0.600704
1039 4 0.404706 0.500105 0.636058
337 4 0.423801 0.475156 0.647908
634 4 0.051911 0.657879 0.598394
332 4 0.0757989 0.655879 0.625865
331 4 0.142545 0.638223 0.646718
330 2 0.109172 0.647051 0.636292
835 4 0.176133 0.649443 0.635576
836 4 0.200431 0.644947 0.567819
834 2 0.188282 0.647195 0.601698
214 4 0.23779 0.629071 0.591722
1452 2 0.394571 0.647197 0.601614
633 2 0.0172183 0.667619 0.599794
1454 4 0.390906 0.674167 0.62527
1051 4 0.409045 0.704729 0.624598
1052 4 0.48079 0.710534 0.620045
1050 2 0.444917 0.707631 0.622321
1204 4 0.142421 0.73739 0.64641
1404 2 0.351058 0.814038 0.639138
1405 4 0.351534 0.813297 0.603088
427 4 0.0369187 0.892634 0.61181
426 2 0.0644826 0.876504 0.595063
643 4 0.408574 0.891713 0.588625
642 2 0.435739 0.90239 0.609803
644 4 0.462905 0.913066 0.63098
1301 4 0.456665 0.98837 0.650924
108 2 0.501041 0.950022 0.590617
110 4 0.497929 0.9255 0.616874
1400 4 0.0640584 0.0938325 0.666808
495 2 0.149069 0.00411891 0.680564
497 4 0.165238 0.00627288 0.648403
1213 4 0.284778 0.0697952 0.678274
200 4 0.31636 0.043935 0.668533
488 4 0.0815673 0.0895372 0.701565
486 2 0.111279 0.109515 0.705873
487 4 0.14099 0.129492 0.71018
880 4 0.209407 0.124678 0.704647
1214 4 0.2267 0.0947408 0.713006
879 2 0.194241 0.135214 0.673673
1212 2 0.255739 0.0822682 0.69564
1009 4 0.456104 0.189963 0.657416
1293 2 0.447913 0.243272 0.681682
1295 4 0.450125 0.209159 0.693164
209 4 0.134991 0.338284 0.744015
924 2 0.447776 0.325505 0.730927
926 4 0.458275 0.325946 0.69643
1199 4 0.072716 0.409242 0.673847
208 4 0.153301 0.337774 0.674257
207 2 0.144146 0.338029 0.709136
1197 2 0.0474361 0.43379 0.681511
1198 4 0.0221561 0.458338 0.689175
459 2 0.180467 0.488263 0.671108
461 4 0.183178 0.500862 0.704788
774 2 0.276018 0.482031 0.690596
336 2 0.402797 0.459428 0.672644
338 4 0.381794 0.4437 0.697381
709 4 0.346652 0.424512 0.737573
1237 4 0.447639 0.442646 0.729105
776 4 0.255613 0.510973 0.697406
1291 4 0.239538 0.539494 0.70758
1290 2 0.255294 0.553505 0.736834
276 2 0.500723 0.557161 0.702829
278 4 0.472718 0.560127 0.725353
1323 2 0.0260783 0.755212 0.681013
1325 4 0.0431394 0.784978 0.669909
1203 2 0.164476 0.759008 0.665028
1205 4 0.186531 0.780625 0.683647
563 4 0.218946 0.770625 0.741448
561 2 0.212932 0.799003 0.720026
562 4 0.206918 0.827381 0.698605
1406 4 0.350582 0.814779 0.675189
308 4 0.347392 0.822403 0.709092
306 2 0.333445 0.798293 0.731995
1342 4 0.179082 0.848044 0.694743
1341 2 0.149594 0.857091 0.713425
1343 4 0.120105 0.866138 0.732106
655 4 0.102798 0.898753 0.73302
939 2 0.229125 0.886144 0.710783
940 4 0.229362 0.850279 0.707048
258 2 0.481749 0.882152 0.670276
259 4 0.459278 0.904666 0.687264
496 4 0.1329 0.0019647 0.712725
2 3 0.19724 0.976881 0.740989
941 4 0.228888 0.922011 0.714518
4 3 0.228299 0.932808 0.746581
5 3 0.214816 0.950962 0.69721
1 1 0.222552 0.959935 0.727844
3 3 0.249674 0.979535 0.727497
198 2 0.332698 0.0234575 0.693315
199 4 0.349036 0.00298061 0.718098
1300 4 0.445319 0.0118291 0.718174
1299 2 0.450992 9.96041e-05 0.684549
534 2 0.271451 0.0748607 0.826544
1289 4 0.4228 0.0786883 0.790751
536 4 0.294661 0.0848359 0.80081
342 2 0.357299 0.16515 0.831232
1287 2 0.393244 0.0990687 0.794143
344 4 0.349736 0.153133 0.798084
1288 4 0.363688 0.119449 0.797534
1352 4 0.489687 0.152831 0.859399
388 4 0.0385061 0.195554 0.791621
387 2 0.0638636 0.21278 0.772629
1046 4 0.0243649 0.166723 0.812026
1516 4 0.0145047 0.263105 0.795345
662 4 0.114287 0.208198 0.769737
389 4 0.0892215 0.230006 0.753639
660 2 0.13777 0.195311 0.793881
661 4 0.161252 0.182425 0.818025
1082 4 0.375491 0.211641 0.819949
1515 2 0.0294361 0.292223 0.810498
1517 4 0.0443677 0.32134 0.825651
85 4 0.0733445 0.317872 0.806176
477 2 0.239833 0.283929 0.847685
479 4 0.207509 0.269176 0.853838
1080 2 0.377958 0.246904 0.827081
925 4 0.437276 0.325064 0.765423
84 2 0.0874829 0.326731 0.774207
1093 4 0.100188 0.371036 0.749455
1092 2 0.126176 0.393243 0.76094
86 4 0.101621 0.335589 0.742238
710 4 0.342199 0.40517 0.80691
1094 4 0.152164 0.415448 0.772426
708 2 0.344425 0.414841 0.772242
1236 2 0.443743 0.441847 0.764946
1238 4 0.439848 0.441049 0.800787
1033 4 0.41635 0.466264 0.8041
1292 4 0.271051 0.567516 0.766088
531 2 0.329464 0.5826 0.80833
532 4 0.347403 0.551971 0.814694
1034 4 0.380197 0.528187 0.811876
1032 2 0.398274 0.497225 0.807988
1433 4 0.383842 0.568041 0.805043
533 4 0.311527 0.61323 0.801965
1424 4 0.332521 0.662836 0.809026
1467 2 0.226342 0.750889 0.79634
1469 4 0.201557 0.759478 0.771595
1468 4 0.251128 0.742299 0.821085
307 4 0.319498 0.774183 0.754899
1459 4 0.315909 0.756499 0.845012
654 2 0.109292 0.90158 0.768378
656 4 0.115785 0.904408 0.803737
811 4 0.174992 0.834282 0.827748
702 2 0.412681 0.886709 0.853958
704 4 0.430036 0.862773 0.833311
916 4 0.0251762 0.960431 0.824292
151 4 0.255657 0.985798 0.83373
152 4 0.259708 0.989175 0.761801
150 2 0.257682 0.987486 0.797766
703 4 0.395327 0.910645 0.874605
170 4 0.332817 0.95579 0.8124
168 2 0.357611 0.976226 0.828772
1023 2 0.496646 0.950366 0.780292
1025 4 0.46597 0.96506 0.768314
653 4 0.110907 0.0554871 0.914052
535 4 0.248241 0.0648859 0.852277
36 1 0.243998 0.0126314 0.887952
39 3 0.212628 0.0189062 0.897773
37 3 0.256077 0.0395524 0.872787
38 3 0.263117 0.00569159 0.914527
179 4 0.416149 0.00305538 0.847764
169 4 0.382405 0.996661 0.845144
1304 4 0.417372 0.0558749 0.91308
1355 4 0.0541581 0.143007 0.927031
505 4 0.17664 0.166361 0.892005
613 4 0.337165 0.107001 0.908014
612 2 0.34988 0.140741 0.907429
614 4 0.362595 0.174481 0.906844
1303 4 0.461259 0.0982591 0.87462
1302 2 0.439316 0.077067 0.89385
1354 4 0.0580273 0.213589 0.912719
1353 2 0.0560926 0.178298 0.919875
504 2 0.159857 0.194525 0.907023
1201 4 0.24445 0.249253 0.907784
1202 4 0.277031 0.193466 0.875723
1200 2 0.26074 0.221359 0.891754
343 4 0.364862 0.177168 0.864381
700 4 0.440825 0.172475 0.941825
699 2 0.424091 0.202449 0.930782
1165 4 0.504739 0.183623 0.848816
701 4 0.407356 0.232422 0.919738
1498 4 0.42213 0.959594 0.935069
1403 4 0.121164 0.308182 0.871562
1401 2 0.119973 0.276673 0.88906
1402 4 0.118783 0.245164 0.906558
478 4 0.272158 0.298682 0.841532
1081 4 0.380424 0.282167 0.834213
49 3 0.379421 0.341341 0.890007
808 4 0.167796 0.354857 0.905112
1481 4 0.33031 0.339316 0.881972
46 1 0.390768 0.371827 0.897866
48 3 0.365848 0.394095 0.896115
47 3 0.414363 0.380409 0.87618
947 4 0.142254 0.457683 0.854307
1084 4 0.108354 0.45255 0.909371
946 4 0.213372 0.446043 0.857207
945 2 0.177813 0.451863 0.855757
1053 2 0.359514 0.458812 0.893292
1055 4 0.37856 0.488862 0.887408
1054 4 0.340468 0.428761 0.899176
144 2 0.437347 0.427082 0.913095
146 4 0.450826 0.452028 0.890815
1129 4 0.479372 0.476219 0.891033
1431 2 0.405242 0.581892 0.830552
1432 4 0.42664 0.595741 0.856061
105 2 0.226049 0.736733 0.899937
1423 4 0.302867 0.71824 0.844418
1422 2 0.317694 0.690538 0.826722
1219 4 0.441351 0.765738 0.889876
812 4 0.245473 0.820736 0.834853
810 2 0.210232 0.827509 0.831301
1458 2 0.279956 0.758335 0.847105
1460 4 0.244002 0.760169 0.849198
106 4 0.258112 0.752649 0.895574
81 2 0.343888 0.809151 0.896569
1220 4 0.38174 0.790957 0.858061
83 4 0.368268 0.820545 0.872565
1218 2 0.411546 0.778347 0.873968
915 2 0.0501413 0.968348 0.84908
917 4 0.0751061 0.976264 0.873869
742 4 0.0703754 0.94427 0.890496
40 3 0.244334 0.987343 0.866995
177 2 0.426501 0.981447 0.874713
178 4 0.436855 0.959839 0.901663
651 2 0.0759892 0.0594923 0.922121
652 4 0.0410712 0.0634974 0.930189
650 4 0.158531 0.0714631 0.967801
265 4 0.0873585 0.148559 0.996932
1192 4 0.234783 0.105168 0.941881
1191 2 0.268753 0.104711 0.929787
1193 4 0.302723 0.104254 0.917694
1049 4 0.415277 0.0687697 0.949662
1048 4 0.346418 0.0795703 0.931131
1047 2 0.380848 0.07417 0.940397
506 4 0.143074 0.222688 0.922041
410 4 0.0957237 0.253248 0.978621
264 2 0.0881274 0.184586 0.998311
266 4 0.0888957 0.220612 0.999689
409 4 0.152621 0.297474 0.981498
408 2 0.124172 0.275361 0.98006
1145 4 0.286936 0.318768 0.967596
1315 4 0.071206 0.379419 0.934754
1314 2 0.0758569 0.41512 0.932694
807 2 0.132556 0.355724 0.912714
809 4 0.0973161 0.356592 0.920317
1480 4 0.279898 0.343036 0.933415
1479 2 0.305104 0.341176 0.907693
50 3 0.403478 0.37159 0.928152
145 4 0.423869 0.402135 0.935376
1316 4 0.0805077 0.450821 0.930634
1083 2 0.100386 0.487428 0.913896
242 4 0.480264 0.488951 0.974432
240 2 0.457867 0.46814 0.993555
1085 4 0.0924172 0.522305 0.918422
312 2 0.0690785 0.562075 0.977649
313 4 0.0813245 0.533788 0.958933
35 3 0.489295 0.495596 0.578358
1128 2 0.472145 0.502368 0.91479
1028 4 0.48705 0.530369 0.973786
1264 4 0.0746074 0.651123 0.957185
291 2 0.242546 0.601414 0.99361
1037 4 0.200423 0.650365 0.959623
292 4 0.225055 0.62724 0.975513
832 4 0.499969 0.181235 0.540915
1263 2 0.0691644 0.684518 0.944712
1265 4 0.0637217 0.717913 0.932238
1035 2 0.198706 0.666044 0.927194
1036 4 0.196989 0.681723 0.894766
107 4 0.193985 0.720817 0.904299
434 4 0.102076 0.74789 0.99456
82 4 0.319508 0.797757 0.920573
928 4 0.0203729 0.898584 0.966819
210 2 0.266419 0.947317 0.920441
743 4 0.0244164 0.920601 0.940786
211 4 0.247001 0.916942 0.919582
141 2 0.361018 0.831937 0.986851
143 4 0.364097 0.859196 0.963444
741 2 0.0473958 0.932435 0.915642
927 2 0.021807 0.92169 0.994468
212 4 0.285837 0.977692 0.921299
1143 2 0.30872 0.317421 0.996303
566 4 0.122687 0.0533902 0.497264
518 4 0.222627 0.998724 0.521981
1133 4 0.708423 0.0953248 0.0462596
1131 2 0.704497 0.0778901 0.0149382
80 4 0.859638 0.0304162 0.0743461
877 4 0.993575 0.0383575 0.0087588
400 4 0.572291 0.114949 0.0133107
268 4 0.746662 0.141107 0.00342778
1488 2 0.862332 0.151987 0.0822628
1489 4 0.867906 0.168243 0.0505586
575 4 0.904891 0.151522 0.0488126
573 2 0.9384 0.164534 0.0459336
574 4 0.971908 0.177547 0.0430537
631 4 0.988297 0.158603 0.0162242
934 4 0.708248 0.190722 0.11251
267 2 0.740792 0.172827 0.0195456
269 4 0.734921 0.204546 0.0356637
353 4 0.891651 0.174806 0.0182874
1235 4 0.725838 0.317381 0.0121151
1429 4 0.87886 0.31594 0.054837
1428 2 0.863203 0.309743 0.0229488
603 2 0.778419 0.390264 0.00307032
590 4 0.857115 0.349242 0.045307
589 4 0.890642 0.391211 0.0934337
588 2 0.873879 0.370227 0.0693706
1146 2 0.978227 0.411811 0.0142222
863 4 0.617923 0.456143 0.0965261
120 2 0.747153 0.463304 0.0154771
122 4 0.720282 0.464348 0.0395042
604 4 0.789729 0.42321 0.993738
121 4 0.774023 0.462259 0.99145
1231 4 0.814039 0.461114 0.0675567
1337 4 0.84475 0.479221 0.0775198
1147 4 0.978867 0.435181 0.0416781
608 4 0.669129 0.62373 0.0607656
220 4 0.705591 0.629006 0.062232
606 2 0.668582 0.614171 0.0259987
219 2 0.739914 0.639412 0.0584765
235 4 0.811403 0.651872 0.0574823
221 4 0.774236 0.649817 0.0547211
234 2 0.8472 0.65611 0.0564704
528 2 0.949271 0.615579 0.0186804
530 4 0.974618 0.616462 0.0443152
236 4 0.882997 0.660349 0.0554584
1091 4 0.562113 0.769636 0.0665126
921 2 0.978349 0.831447 0.00832887
623 4 0.787415 0.86443 0.0206742
1441 4 0.803316 0.883203 0.091835
621 2 0.751473 0.866286 0.0184079
1442 4 0.865086 0.869253 0.0573189
1440 2 0.834201 0.876228 0.0745768
875 4 0.503458 0.533155 0.407891
982 4 0.831989 0.989855 0.017838
983 4 0.885651 0.943449 0.00485899
981 2 0.85882 0.966652 0.0113488
1042 4 0.989705 0.00771974 0.0638551
1043 4 0.985684 0.950285 0.0204188
1041 2 0.987694 0.979002 0.0421366
119 4 0.997314 0.918013 0.092691
1005 2 0.704552 0.0574129 0.101182
1006 4 0.718239 0.0307748 0.121269
78 2 0.864931 0.0218662 0.108977
79 4 0.870225 0.013316 0.143608
256 4 0.995953 0.00135365 0.104753
933 2 0.703813 0.155003 0.114726
935 4 0.699379 0.119284 0.116943
1007 4 0.690866 0.0840506 0.0810934
1490 4 0.856759 0.135732 0.113966
738 2 0.732459 0.250229 0.122143
739 4 0.763514 0.231903 0.122576
637 4 0.567751 0.261388 0.0996379
636 2 0.541285 0.284177 0.108614
638 4 0.514818 0.306967 0.117589
740 4 0.701404 0.268554 0.121711
68 4 0.979272 0.346989 0.150116
364 4 0.560624 0.418505 0.147905
862 4 0.685364 0.438912 0.0776453
861 2 0.651644 0.447528 0.0870856
1230 2 0.797172 0.443207 0.0939254
1232 4 0.780306 0.425301 0.120294