ITEM: TIMESTEP
1608500
ITEM: NUMBER OF ATOMS
1520
ITEM: BOX BOUNDS pp pp pp
-6.9326749999999997e+00 6.9326749999999997e+00
-6.9326749999999997e+00 6.9326749999999997e+00
-6.9326749999999997e+00 6.9326749999999997e+00
ITEM: ATOMS id type xs ys zs
43 3 0.0239304 0.071401 0.0123869
1322 4 0.156863 0.087302 0.0312872
1456 4 0.227021 0.996045 0.0391628
535 4 0.252036 0.0137333 0.0577312
534 2 0.269109 0.0344807 0.0817829
1354 4 0.324328 0.0665059 0.0333607
1355 4 0.388398 0.0488234 0.00535891
1353 2 0.356364 0.0576657 0.0193602
1153 4 0.422789 0.0851594 0.088715
1282 4 0.194476 0.899177 0.00796262
1240 4 0.45691 0.000510182 0.482769
654 2 0.0146986 0.272555 0.031989
656 4 0.0480688 0.261064 0.0393919
362 4 0.112776 0.270329 0.0367586
360 2 0.14464 0.278113 0.0217756
647 4 0.141777 0.331015 0.0847444
361 4 0.176504 0.285895 0.00679254
550 4 0.40105 0.291459 0.0153157
1188 2 0.487475 0.281402 0.0535521
1189 4 0.459903 0.294427 0.0343025
1460 4 0.0493225 0.355293 0.0718868
1458 2 0.0829507 0.352786 0.084665
956 4 0.498538 0.952433 0.339545
1210 4 0.394252 0.364934 0.00629776
1372 4 0.494287 0.870158 0.260479
1 1 0.0128394 0.486533 0.00941687
367 4 0.0602969 0.445143 0.0386806
366 2 0.0521801 0.459622 0.0706947
3 3 0.0349544 0.462473 0.0166262
606 2 0.180001 0.454893 0.00217939
608 4 0.172962 0.457351 0.0374615
1103 4 0.284627 0.424932 0.0744645
867 2 0.146821 0.579334 0.0676192
715 4 0.18473 0.539768 0.0574145
714 2 0.219643 0.534522 0.0647542
868 4 0.152584 0.547821 0.0510641
716 4 0.254557 0.529276 0.072095
486 2 0.3194 0.555124 0.0729734
487 4 0.285195 0.543713 0.0733565
488 4 0.353606 0.566536 0.0725908
736 4 0.00550828 0.620892 0.00846461
869 4 0.141056 0.610849 0.0841727
1003 4 0.371637 0.607755 0.0126082
1067 4 0.0355445 0.751419 0.0241691
1065 2 0.0172599 0.782421 0.0219458
735 2 0.0122474 0.585467 0.00871579
1500 2 0.409231 0.790744 0.0193483
1502 4 0.384942 0.798885 0.0447302
472 4 0.482121 0.778915 0.00606483
1360 4 0.00673535 0.997526 0.310483
1054 4 0.436028 0.932772 0.418418
1041 2 0.2773 0.859911 0.0665647
1043 4 0.270123 0.871664 0.0332367
710 4 0.10668 0.931539 0.0819583
1455 2 0.252011 0.978658 0.0198339
993 2 0.434618 0.937325 0.0686713
995 4 0.458842 0.949798 0.0450487
1256 4 0.437527 0.970667 0.0277744
1254 2 0.42109 0.994348 0.00610816
536 4 0.286181 0.0552288 0.105835
1154 4 0.39143 0.020631 0.081345
1152 2 0.40711 0.052895 0.0850307
70 4 0.0703507 0.13674 0.108691
1135 4 0.0583224 0.137929 0.144402
71 4 0.141004 0.151114 0.106916
69 2 0.105677 0.143928 0.107803
627 2 0.0845108 0.245687 0.135424
628 4 0.070042 0.217422 0.152517
797 4 0.0113583 0.322205 0.154291
646 4 0.138125 0.272722 0.127054
629 4 0.0989798 0.273951 0.118331
645 2 0.139951 0.301869 0.1059
751 4 0.258148 0.261825 0.111327
750 2 0.270579 0.293261 0.123885
752 4 0.283009 0.324695 0.136444
1459 4 0.116579 0.350279 0.0974426
908 4 0.326903 0.429567 0.162533
368 4 0.0440628 0.474101 0.102708
910 4 0.204714 0.438507 0.130191
1102 4 0.216833 0.416931 0.0977389
1101 2 0.25073 0.420931 0.0861015
909 2 0.215993 0.45556 0.159896
906 2 0.325322 0.444792 0.129881
907 4 0.323742 0.460016 0.0972292
107 4 0.361664 0.418184 0.150586
230 4 0.492592 0.453068 0.137518
1027 4 0.115913 0.583187 0.147852
734 4 0.0169705 0.649668 0.134722
95 4 0.0475413 0.648977 0.114483
93 2 0.0664589 0.624525 0.133046
94 4 0.0853765 0.600073 0.15161
468 2 0.129657 0.768812 0.0949306
469 4 0.140434 0.735566 0.0860457
1000 4 0.231778 0.733923 0.134492
999 2 0.205609 0.724835 0.157579
470 4 0.11888 0.802059 0.103816
409 4 0.0954939 0.822088 0.142529
251 4 0.248837 0.762705 0.118138
249 2 0.256667 0.797603 0.122761
250 4 0.264498 0.832499 0.127385
708 2 0.110322 0.900397 0.099772
709 4 0.113965 0.869256 0.117586
133 4 0.185811 0.869044 0.17469
132 2 0.20246 0.86933 0.142702
134 4 0.219108 0.869617 0.110716
1042 4 0.284477 0.848157 0.099892
529 4 0.368961 0.897106 0.173284
528 2 0.388153 0.895047 0.142823
530 4 0.407345 0.892989 0.112363
994 4 0.410394 0.92485 0.0922939
480 2 0.0448838 0.0685278 0.227694
482 4 0.0301106 0.0613888 0.195582
344 4 0.131738 0.04592 0.165468
281 4 0.112878 0.0310522 0.259567
342 2 0.112958 0.0460945 0.196251
343 4 0.0941768 0.0462696 0.227036
564 2 0.237743 0.032523 0.170014
566 4 0.233663 0.996971 0.174474
565 4 0.241823 0.0680735 0.165553
1134 2 0.0383433 0.150934 0.17146
1136 4 0.0183634 0.16394 0.198517
497 4 0.256325 0.166875 0.18268
495 2 0.220412 0.169804 0.184132
496 4 0.184499 0.172734 0.185585
538 4 0.264929 0.405115 0.238239
105 2 0.359089 0.401709 0.18256
106 4 0.356514 0.385233 0.214533
195 2 0.163765 0.483877 0.255828
197 4 0.155572 0.487295 0.220876
911 4 0.227272 0.472613 0.189601
539 4 0.255501 0.472216 0.213536
866 4 0.27433 0.504806 0.223724
537 2 0.260215 0.438666 0.225887
1026 2 0.110744 0.559897 0.174894
1028 4 0.105575 0.536607 0.201935
572 4 0.200972 0.585547 0.19692
570 2 0.178216 0.571182 0.220925
864 2 0.263861 0.531708 0.245337
453 2 0.221032 0.683755 0.229352
454 4 0.203922 0.706004 0.20671
1001 4 0.17944 0.715747 0.180666
1036 4 0.408696 0.753 0.204461
408 2 0.078752 0.819088 0.174327
410 4 0.0620088 0.816087 0.206125
1030 4 0.160247 0.806093 0.256854
1470 2 0.278896 0.814438 0.224527
1471 4 0.262852 0.807174 0.255994
1037 4 0.470559 0.781415 0.180645
1035 2 0.439628 0.767208 0.192553
1436 4 0.426429 0.834279 0.247861
156 2 0.117707 0.842599 0.243985
157 4 0.089569 0.831887 0.224137
626 4 0.125762 0.93105 0.205419
1472 4 0.29494 0.8217 0.193059
1434 2 0.457505 0.848448 0.236289
625 4 0.0576509 0.953497 0.197764
624 2 0.0917069 0.942274 0.201592
402 2 0.215882 0.955886 0.229755
403 4 0.21383 0.968856 0.196169
481 4 0.0596565 0.0756659 0.259807
1359 2 0.0246211 0.0213077 0.290114
1361 4 0.0425068 0.0450902 0.269744
279 2 0.128583 0.0365316 0.291563
280 4 0.144289 0.0420115 0.323559
415 4 0.30253 0.0343755 0.312905
1329 2 0.432867 0.0675237 0.283524
1330 4 0.430074 0.0547957 0.317148
492 2 0.369462 0.0977218 0.332053
493 4 0.378164 0.131682 0.323604
1331 4 0.435659 0.0802519 0.249899
502 4 0.446461 0.212965 0.281689
501 2 0.450916 0.206376 0.316863
1208 4 0.172025 0.331273 0.30359
196 4 0.171958 0.48046 0.29078
1333 4 0.134724 0.508805 0.345036
571 4 0.155461 0.556817 0.24493
865 4 0.253392 0.558609 0.26695
726 2 0.251924 0.655227 0.31522
989 4 0.0165678 0.755084 0.270088
455 4 0.238141 0.661506 0.251993
727 4 0.236513 0.671085 0.286734
1029 2 0.168484 0.774455 0.272072
1031 4 0.176721 0.742817 0.287291
1078 4 0.177001 0.772086 0.312798
1175 4 0.234048 0.766835 0.322368
1174 4 0.27046 0.818578 0.287748
1173 2 0.252254 0.792706 0.305058
158 4 0.145845 0.85331 0.263833
791 4 0.181047 0.851393 0.266548
789 2 0.20532 0.877819 0.262955
790 4 0.229593 0.904246 0.25936
1442 4 0.323636 0.888978 0.237476
76 4 0.278394 0.90566 0.317222
541 4 0.393834 0.864408 0.301124
1440 2 0.35069 0.892372 0.261077
1441 4 0.377744 0.895766 0.284677
330 2 0.481289 0.91018 0.336257
1435 4 0.488582 0.862617 0.224718
331 4 0.481299 0.886409 0.30914
404 4 0.217934 0.942916 0.26334
77 4 0.256342 0.95643 0.270986
75 2 0.267369 0.931046 0.294103
1132 4 0.355298 0.943606 0.300952
1131 2 0.388869 0.95191 0.311175
1133 4 0.422439 0.960214 0.321397
68 4 0.0310892 0.0488284 0.369994
401 4 0.077821 0.0789851 0.39465
399 2 0.0958368 0.0688579 0.365099
66 2 0.0196621 0.0203115 0.388879
67 4 0.00823536 0.991795 0.407764
400 4 0.113853 0.0587301 0.335547
1421 4 0.277618 0.0622122 0.406341
416 4 0.300655 0.0515143 0.382936
414 2 0.301593 0.0429453 0.347921
494 4 0.360758 0.0637617 0.340502
766 4 0.40515 0.0790743 0.418023
1185 2 0.0201642 0.230187 0.37862
352 4 0.357905 0.237197 0.345844
351 2 0.37407 0.244996 0.377121
503 4 0.455371 0.199788 0.352036
604 4 0.459624 0.181994 0.382626
603 2 0.436808 0.202212 0.401889
1187 4 0.0554317 0.227459 0.385629
1424 4 0.0210936 0.327988 0.376505
1207 4 0.190115 0.284192 0.355144
1206 2 0.18107 0.307732 0.329367
1305 2 0.246267 0.291321 0.400271
1307 4 0.238561 0.267393 0.374417
353 4 0.390235 0.252793 0.4084
190 4 0.0561647 0.38018 0.397258
189 2 0.0821144 0.391368 0.374857
522 2 0.158046 0.410528 0.372819
523 4 0.135315 0.384988 0.361355
191 4 0.108064 0.402557 0.352456
943 4 0.324331 0.362727 0.360732
942 2 0.289811 0.36785 0.369819
944 4 0.255292 0.372973 0.378907
1239 2 0.437747 0.981412 0.458927
1241 4 0.418584 0.962313 0.435085
51 2 0.256656 0.976097 0.471106
1094 4 0.0279615 0.470643 0.354673
311 4 0.24175 0.485297 0.418832
309 2 0.209194 0.470001 0.416271
310 4 0.176638 0.454704 0.41371
524 4 0.180777 0.436067 0.384283
1139 4 0.494234 0.410109 0.370797
1332 2 0.135268 0.496843 0.379051
1334 4 0.135811 0.484881 0.413067
97 4 0.025525 0.57544 0.399647
741 2 0.240469 0.607548 0.394154
742 4 0.250815 0.636138 0.374765
743 4 0.230123 0.578957 0.413543
728 4 0.267336 0.639371 0.343705
180 2 0.452216 0.711589 0.411624
182 4 0.471105 0.691286 0.388572
1292 4 0.0543715 0.770818 0.370457
1290 2 0.06464 0.80516 0.366502
1291 4 0.074909 0.839501 0.362547
1077 2 0.186683 0.756934 0.344057
1079 4 0.196364 0.741781 0.375315
807 2 0.00341626 0.883687 0.40215
808 4 0.0317342 0.861915 0.3972
985 4 0.212912 0.881933 0.405395
540 2 0.405607 0.858154 0.33463
922 4 0.422183 0.862879 0.402366
542 4 0.41738 0.8519 0.368137
514 4 0.12922 0.960621 0.421744
332 4 0.481279 0.933952 0.363374
1055 4 0.435666 0.968297 0.355653
1053 2 0.435847 0.950534 0.387035
1266 2 0.128885 0.0908441 0.496229
1267 4 0.112654 0.0977975 0.464787
767 4 0.354591 0.0486803 0.459515
765 2 0.379871 0.0638774 0.438769
374 4 0.00867667 0.132598 0.463095
81 2 0.0684897 0.141845 0.417239
83 4 0.0671494 0.109131 0.402127
986 4 0.266709 0.915076 0.440168
1419 2 0.29091 0.0829517 0.432677
1420 4 0.304202 0.103692 0.459014
386 4 0.286142 0.13006 0.477304
384 2 0.308074 0.154799 0.491704
82 4 0.0698295 0.174559 0.432351
824 4 0.379208 0.230494 0.440503
822 2 0.382399 0.2212 0.475201
605 4 0.41399 0.222432 0.421153
1306 4 0.253973 0.315249 0.426126
747 2 0.326502 0.282861 0.485357
748 4 0.304203 0.270538 0.459837
1423 4 0.0245046 0.317832 0.447829
1422 2 0.0227988 0.32291 0.412166
284 4 0.141276 0.328049 0.485083
283 4 0.145805 0.399581 0.477064
282 2 0.14354 0.363815 0.481074
677 4 0.0923396 0.467843 0.439965
675 2 0.0755153 0.455948 0.46956
504 2 0.135946 0.502028 0.477524
505 4 0.103136 0.493584 0.465168
1509 2 0.284745 0.473524 0.474193
1510 4 0.289346 0.469962 0.438604
1089 2 0.352345 0.45062 0.431508
1090 4 0.383437 0.434764 0.440578
1091 4 0.321254 0.466477 0.422437
506 4 0.168756 0.510471 0.489879
1378 4 0.182108 0.545099 0.486131
1377 2 0.192124 0.550313 0.451884
1379 4 0.202141 0.555527 0.417636
98 4 0.0461599 0.60925 0.459919
96 2 0.0358426 0.592345 0.429783
1108 4 0.22128 0.719124 0.488148
187 4 0.307845 0.719994 0.488488
186 2 0.336438 0.740015 0.497544
181 4 0.433327 0.731891 0.434677
569 4 0.120681 0.815121 0.49477
1059 2 0.488922 0.521114 0.485701
1061 4 0.467853 0.492151 0.4815
545 4 0.439638 0.746006 0.464435
543 2 0.430219 0.776004 0.482093
515 4 0.144126 0.901606 0.460431
567 2 0.123836 0.842908 0.472002
568 4 0.126992 0.870694 0.449235
984 2 0.239811 0.898505 0.422781
1312 4 0.335036 0.885461 0.452238
1311 2 0.323249 0.906013 0.479425
921 2 0.395073 0.877533 0.421092
923 4 0.367963 0.892187 0.439819
452 4 0.0519732 0.92707 0.491542
513 2 0.136673 0.931113 0.441088
858 2 0.498001 0.661422 0.192159
52 4 0.26396 0.953281 0.444152
2 3 0.014366 0.509897 0.0329218
1106 4 0.483378 0.567846 0.123698
859 4 0.483411 0.690043 0.208541
1034 4 0.496316 0.345527 0.393378
1320 2 0.165426 0.107712 0.00281822
713 4 0.00880032 0.0407592 0.0306993
711 2 0.00281212 0.0102636 0.048992
372 2 0.00566998 0.126698 0.498543
676 4 0.0586911 0.444053 0.499155
53 4 0.249351 0.99891 0.498061
544 4 0.4208 0.806002 0.499752
737 4 0.0189858 0.550042 0.00896692
1002 2 0.379597 0.573736 0.00368111
1499 4 0.171802 0.996818 0.579197
1268 4 0.145116 0.0838909 0.527671
831 2 0.232481 0.0172155 0.548788
211 4 0.494442 0.011546 0.581061
1246 4 0.498905 0.862931 0.738942
1369 4 0.16522 0.0943299 0.553638
1368 2 0.145066 0.0835961 0.581549
385 4 0.330006 0.179539 0.506106
847 4 0.0566829 0.164926 0.590647
871 4 0.0685608 0.232812 0.539591
870 2 0.0796965 0.204781 0.559356
872 4 0.0908314 0.17675 0.579121
823 4 0.385592 0.211907 0.509898
412 4 0.138528 0.323778 0.520773
749 4 0.348802 0.295182 0.510877
688 4 0.495466 0.445043 0.682968
413 4 0.0959336 0.336327 0.577605
411 2 0.11723 0.330053 0.549189
61 4 0.234652 0.396718 0.572063
1310 4 0.201792 0.396266 0.556152
60 2 0.261323 0.381597 0.553077
62 4 0.287994 0.366477 0.534092
773 4 0.384963 0.400312 0.578007
771 2 0.403906 0.369654 0.579306
152 4 0.0210247 0.488456 0.523695
1511 4 0.280146 0.477085 0.509782
616 4 0.381244 0.4317 0.554687
615 2 0.402561 0.455771 0.538358
617 4 0.423877 0.479842 0.522029
188 4 0.365031 0.760036 0.506599
379 4 0.211573 0.532953 0.551555
378 2 0.243249 0.519646 0.540602
349 4 0.220798 0.557881 0.57485
380 4 0.274924 0.506339 0.529648
24 3 0.482509 0.558536 0.589056
1109 4 0.28749 0.716699 0.516642
1107 2 0.254385 0.717911 0.502396
154 4 0.130654 0.775225 0.54294
931 4 0.342615 0.798735 0.572101
930 2 0.362872 0.824429 0.556941
135 2 0.160494 0.892008 0.562635
136 4 0.134469 0.902132 0.539818
451 4 0.112552 0.893713 0.512016
642 2 0.286188 0.899271 0.555315
643 4 0.281949 0.869127 0.574649
932 4 0.38313 0.850123 0.541781
1403 4 0.364668 0.877434 0.53601
1401 2 0.384541 0.906416 0.527916
929 4 0.304008 0.93678 0.99989
450 2 0.082263 0.910391 0.501779
1497 2 0.1601 0.978266 0.550574
1498 4 0.148397 0.959714 0.52195
832 4 0.221095 0.0110647 0.515129
687 2 0.498693 0.417305 0.660152
644 4 0.290427 0.929415 0.535982
1402 4 0.404413 0.935397 0.519823
363 2 0.455473 0.968663 0.539558
364 4 0.478041 0.984877 0.562541
365 4 0.432906 0.95245 0.516574
1370 4 0.124913 0.0728632 0.609461
833 4 0.243866 0.0233673 0.582447
703 4 0.210798 0.0488359 0.655594
673 4 0.269009 0.0512706 0.58545
848 4 0.0489669 0.101331 0.623778
846 2 0.0528249 0.133129 0.607213
277 4 0.176551 0.156121 0.630611
672 2 0.263984 0.0867473 0.58952
674 4 0.258959 0.122224 0.59359
586 4 0.480393 0.119202 0.635039
1432 4 0.479731 0.159419 0.640447
276 2 0.204115 0.173266 0.646319
278 4 0.231678 0.190412 0.662027
260 4 0.389998 0.212767 0.655198
1431 2 0.452769 0.183134 0.643799
1433 4 0.425809 0.206847 0.64715
517 4 0.0402442 0.280676 0.673148
462 2 0.104286 0.322514 0.630768
464 4 0.0797694 0.316734 0.604961
50 3 0.00909884 0.239285 0.626584
1309 4 0.180659 0.404345 0.624634
463 4 0.128803 0.328294 0.656574
1308 2 0.191225 0.400306 0.590393
1147 4 0.336247 0.394402 0.560907
1384 4 0.489919 0.395226 0.605242
772 4 0.42285 0.338997 0.580605
443 4 0.478916 0.455586 0.715315
573 2 0.0176822 0.431927 0.645468
575 4 0.0298134 0.461717 0.629163
86 4 0.0593289 0.45275 0.643658
85 4 0.128456 0.471206 0.65273
84 2 0.0938917 0.461978 0.648194
1146 2 0.3272 0.417306 0.58725
1148 4 0.318152 0.44021 0.613593
636 2 0.3422 0.486379 0.656236
637 4 0.333828 0.472042 0.624224
553 4 0.0490506 0.539901 0.580323
304 4 0.0141928 0.532666 0.596344
552 2 0.0706065 0.52552 0.605401
554 4 0.0921614 0.511139 0.63048
1045 4 0.442618 0.525052 0.651434
348 2 0.222186 0.587392 0.595528
350 4 0.223574 0.616903 0.616206
829 4 0.237667 0.627219 0.647001
337 4 0.047024 0.73673 0.599984
20 3 0.402786 0.738587 0.662186
338 4 0.0524448 0.807968 0.60985
336 2 0.0497348 0.772349 0.604917
153 2 0.128385 0.76865 0.578324
155 4 0.126117 0.762075 0.613709
1410 2 0.0603849 0.912367 0.625573
1411 4 0.0826345 0.885471 0.634629
137 4 0.186519 0.881884 0.585452
1063 4 0.012125 0.926054 0.592508
1412 4 0.0381357 0.939262 0.616518
1075 4 0.159702 0.0355006 0.598971
1076 4 0.224159 0.0309341 0.631002
1074 2 0.19193 0.0332178 0.614987
920 4 0.338917 0.012742 0.615036
918 2 0.34208 0.00644365 0.650402
959 4 0.148085 0.079526 0.680428
957 2 0.158766 0.0671102 0.712555
176 4 0.071078 0.0252279 0.705647
702 2 0.241101 0.0673097 0.661987
274 4 0.186551 0.0857544 0.748374
958 4 0.169447 0.0546946 0.744683
704 4 0.271403 0.0857846 0.66838
919 4 0.345242 0.00014507 0.685768
184 4 0.0673016 0.128347 0.733524
322 4 0.0639868 0.159917 0.753377
185 4 0.124377 0.0956586 0.703935
183 2 0.0958389 0.112003 0.71873
323 4 0.0726013 0.221667 0.717122
321 2 0.0682943 0.190792 0.735249
1490 4 0.215775 0.202933 0.697632
1488 2 0.208733 0.183961 0.72748
258 2 0.400841 0.231902 0.683776
259 4 0.411684 0.251037 0.712354
532 4 0.42962 0.252224 0.744094
531 2 0.444747 0.219644 0.747283
518 4 0.0850537 0.259976 0.725733
47 3 0.0195344 0.252485 0.677713
516 2 0.0626492 0.270326 0.69944
1158 2 0.151558 0.404527 0.69346
1160 4 0.119033 0.388998 0.692293
1159 4 0.184083 0.420055 0.694627
265 4 0.392091 0.402639 0.703325
638 4 0.350572 0.500716 0.688248
264 2 0.384424 0.413074 0.736981
1453 4 0.351998 0.511 0.745986
235 4 0.338659 0.537983 0.721456
1044 2 0.450033 0.521869 0.686581
1046 4 0.457447 0.518686 0.721727
270 2 0.217213 0.622112 0.749543
272 4 0.229596 0.654912 0.74111
828 2 0.247588 0.64073 0.67893
825 2 0.293544 0.642173 0.743983
827 4 0.2678 0.667111 0.747999
830 4 0.257509 0.654239 0.710853
826 4 0.319298 0.617251 0.739979
234 2 0.34542 0.572578 0.729067
236 4 0.352181 0.607173 0.736678
666 2 0.229175 0.721878 0.715378
161 4 0.204924 0.687164 0.739555
667 4 0.242616 0.689607 0.724253
668 4 0.215733 0.754137 0.706483
159 2 0.169228 0.684437 0.743926
116 4 0.282182 0.686868 0.715509
114 2 0.311254 0.702687 0.701173
17 3 0.36973 0.69914 0.677953
16 1 0.382384 0.728742 0.68597
19 3 0.399039 0.725925 0.714859
115 4 0.34032 0.718505 0.686843
1400 4 0.427275 0.730479 0.688058
1398 2 0.457607 0.712327 0.68092
1399 4 0.487938 0.694175 0.673784
393 2 0.182094 0.797271 0.746927
394 4 0.193681 0.7781 0.718667
1051 4 0.208914 0.796805 0.690381
1050 2 0.240514 0.814166 0.689692
1052 4 0.272113 0.831527 0.689002
18 3 0.357327 0.75067 0.68932
899 4 0.00570553 0.829325 0.78294
574 4 0.00555064 0.402138 0.661772
1484 4 0.334529 0.885889 0.719265
174 2 0.0648714 0.989753 0.703792
175 4 0.0586651 0.954279 0.701937
429 2 0.13317 0.936295 0.730991
430 4 0.130475 0.929853 0.695611
1140 2 0.330046 0.953353 0.738733
1142 4 0.327223 0.921353 0.722349
1141 4 0.33287 0.985353 0.755117
166 4 0.00905017 0.040026 0.781131
163 4 0.131625 0.0346237 0.80535
836 4 0.406936 0.0254597 0.736928
798 2 0.469215 0.0502761 0.823
275 4 0.225125 0.141887 0.772098
273 2 0.205838 0.11382 0.760236
904 4 0.388626 0.171033 0.822908
903 2 0.389302 0.170173 0.786864
14 3 0.161183 0.185801 0.828864
1489 4 0.201691 0.164988 0.757328
905 4 0.389978 0.169313 0.750819
763 4 0.48632 0.166546 0.766759
533 4 0.459873 0.187065 0.750472
436 4 0.0284548 0.259049 0.827369
578 4 0.289007 0.387109 0.817797
519 2 0.495627 0.372399 0.839163
576 2 0.281183 0.422299 0.818749
266 4 0.376758 0.423508 0.770639
1454 4 0.348519 0.461869 0.798672
1452 2 0.350259 0.486434 0.772329
854 4 0.456234 0.517102 0.757383
852 2 0.470238 0.550115 0.76119
406 4 0.0302475 0.676887 0.797192
271 4 0.204817 0.589315 0.757972
853 4 0.484243 0.583126 0.764997
405 2 0.0302262 0.676019 0.761141
407 4 0.0302045 0.67515 0.72509
1096 4 0.0992681 0.678792 0.832525
1097 4 0.140303 0.700177 0.777203
1095 2 0.119785 0.689485 0.804864
160 4 0.133537 0.681708 0.748294
1259 4 0.227884 0.67666 0.835164
1257 2 0.232436 0.682251 0.799831
1258 4 0.236984 0.687849 0.764509
680 4 0.269522 0.707694 0.748788
678 2 0.287005 0.731893 0.76901
370 4 0.449122 0.723543 0.853395
1228 4 0.0405236 0.806181 0.813501
935 4 0.0122152 0.781498 0.82582
395 4 0.170507 0.816442 0.775186
679 4 0.304497 0.756092 0.789229
1161 2 0.295007 0.810527 0.809687
1163 4 0.299611 0.776476 0.820631
1162 4 0.290401 0.844578 0.798745
1483 4 0.308993 0.84097 0.769582
1482 2 0.321761 0.863429 0.744423
1245 2 0.497611 0.875449 0.772736
1247 4 0.496318 0.887965 0.806531
1300 4 0.468233 0.910964 0.812697
431 4 0.135865 0.942737 0.766369
162 2 0.13868 0.999643 0.800159
164 4 0.145735 0.964661 0.794967
834 2 0.402763 0.994634 0.755169
835 4 0.39859 0.963809 0.77341
1299 2 0.44175 0.935243 0.809595
1301 4 0.415267 0.959521 0.806492
28 3 0.0745935 0.0443309 0.910472
26 1 0.0961952 0.0193726 0.915978
30 3 0.0921843 0.995886 0.893368
799 4 0.44538 0.0528865 0.849935
12 3 0.167396 0.137934 0.853534
842 4 0.158174 0.149251 0.888567
13 3 0.208504 0.173268 0.853524
11 1 0.175214 0.170147 0.854903
707 4 0.241511 0.103829 0.870251
705 2 0.267231 0.125396 0.883433
1476 2 0.406096 0.145972 0.901905
1478 4 0.409624 0.110395 0.906619
801 2 0.086443 0.233064 0.846175
802 4 0.0614109 0.241685 0.821689
803 4 0.111475 0.224443 0.87066
15 3 0.163923 0.182834 0.883017
662 4 0.203385 0.229706 0.911955
1477 4 0.402567 0.181548 0.897188
435 2 0.010423 0.284622 0.845295
661 4 0.194134 0.265768 0.850186
660 2 0.19876 0.247737 0.881071
520 4 0.465145 0.391145 0.843627
577 4 0.27336 0.457488 0.819701
1171 4 0.46713 0.551067 0.885571
1170 2 0.495298 0.566766 0.901711
781 4 0.15542 0.629447 0.901148
308 4 0.482871 0.666935 0.888973
640 4 0.0951883 0.704381 0.861251
641 4 0.0449301 0.754343 0.874651
639 2 0.0700592 0.729362 0.867951
172 4 0.048524 0.667005 0.923462
369 2 0.484286 0.729165 0.847707
1227 2 0.0717319 0.811694 0.830708
1229 4 0.10294 0.817207 0.847915
966 2 0.157914 0.789826 0.876692
967 4 0.131021 0.796384 0.853581
968 4 0.184808 0.783267 0.899803
611 4 0.474173 0.789586 0.909324
65 4 0.461381 0.797802 0.873513
63 2 0.453258 0.832499 0.867989
962 4 0.30702 0.876063 0.883717
960 2 0.323945 0.880035 0.91531
1357 4 0.464144 0.879119 0.892934
64 4 0.445136 0.867197 0.862466
810 2 0.158752 0.984592 0.890239
812 4 0.1282 0.997593 0.876172
811 4 0.189305 0.971591 0.904306
29 3 0.127566 0.030977 0.914944
1314 2 0.226144 0.00175634 0.942389
1316 4 0.251184 0.0274207 0.946232
1150 4 0.247867 0.0569514 0.970722
648 2 0.411369 0.0716204 0.946624
649 4 0.388993 0.0499108 0.964749
1255 4 0.404651 0.0180307 0.984443
840 2 0.150246 0.135111 0.920779
841 4 0.142318 0.12097 0.95299
442 4 0.469534 0.470761 0.785197
1149 2 0.234451 0.0903937 0.969296
1151 4 0.221033 0.123836 0.96787
1321 4 0.173989 0.128123 0.974348
706 4 0.292952 0.146962 0.896616
35 3 0.312275 0.182104 0.90009
650 4 0.433745 0.0933287 0.928501
940 4 0.25213 0.181056 0.989723
952 4 0.196672 0.23265 0.947392
953 4 0.201437 0.160955 0.953633
951 2 0.199054 0.196803 0.950513
939 2 0.285697 0.185266 0.977238
941 4 0.319265 0.189476 0.964751
34 3 0.334816 0.21454 0.937355
31 1 0.33618 0.184595 0.922476
32 3 0.36559 0.181411 0.907458
33 3 0.333011 0.160338 0.945312
1012 4 0.418367 0.199027 0.918397
1011 2 0.431087 0.229888 0.932039
549 2 0.405486 0.283447 0.980437
551 4 0.409921 0.275435 0.945559
1013 4 0.443807 0.260749 0.945684
1022 4 0.243595 0.409839 0.989434
1020 2 0.268533 0.384297 0.994542
581 4 0.47192 0.376023 0.925845
579 2 0.447844 0.402871 0.92591
927 2 0.330288 0.9145 0.989246
607 4 0.18704 0.452435 0.966898
1215 2 0.247272 0.506218 0.939484
1216 4 0.25584 0.4717 0.94544
124 4 0.417637 0.449775 0.956653
580 4 0.423768 0.429719 0.925976
123 2 0.403472 0.476253 0.976621
1211 4 0.439085 0.418704 0.988965
800 4 0.493051 0.0476657 0.796065
23 3 0.497097 0.610464 0.579301
5 3 0.0199948 0.499979 0.980317
1217 4 0.238704 0.540737 0.933528
125 4 0.389307 0.50273 0.996589
1004 4 0.387558 0.539716 0.994753
373 4 0.00266313 0.120797 0.533991
173 4 0.0153288 0.677561 0.986616
780 2 0.170889 0.655142 0.921171
171 2 0.0319263 0.672284 0.955039
782 4 0.186359 0.680837 0.941194
1404 2 0.209728 0.722138 0.929972
1406 4 0.221305 0.694056 0.949409
1181 4 0.332112 0.740827 0.923606
307 4 0.432166 0.669334 0.940208
306 2 0.457518 0.668134 0.91459
1405 4 0.198152 0.750221 0.910535
1179 2 0.307879 0.752417 0.947665
1180 4 0.283646 0.764007 0.971724
1283 4 0.147602 0.914567 0.955354
441 2 0.474225 0.463174 0.750256
1281 2 0.171039 0.906871 0.981659
928 4 0.356569 0.892218 0.978602
961 4 0.340871 0.884007 0.946904
1356 2 0.452085 0.877905 0.926898
1358 4 0.440027 0.876689 0.960862
27 3 0.09045 0.00665921 0.946078
1315 4 0.201105 0.976092 0.938546
1457 4 0.277 0.961271 0.00050447
1450 4 0.00212816 0.64678 0.58984
1021 4 0.293471 0.358754 0.99965
1209 2 0.416669 0.391818 0.997631
1501 4 0.43352 0.782603 0.993967
1313 4 0.311463 0.926564 0.506612
1237 4 0.591816 0.675351 0.0077761
652 4 0.865997 0.288723 0.00995696
745 4 0.987587 0.145699 0.427556
926 4 0.712727 0.122547 0.0443944
924 2 0.700643 0.155996 0.0384271
1325 4 0.736255 0.110448 0.0714359
41 1 0.993579 0.0842843 0.0181064
42 3 0.973438 0.0600669 0.0285242
1465 4 0.622813 0.196693 0.0311198
1464 2 0.627254 0.180113 0.0628343
925 4 0.68856 0.189444 0.0324618
1092 2 0.992883 0.468897 0.3465
653 4 0.842008 0.222564 0.0257393
1190 4 0.515048 0.268377 0.0728003
139 4 0.659179 0.341859 0.039428
722 4 0.723701 0.289916 0.0207191
138 2 0.680901 0.323992 0.0168599
720 2 0.751954 0.28453 0.0424719
721 4 0.780208 0.279144 0.0642251
651 2 0.854002 0.255643 0.0178479
1123 4 0.988817 0.317579 0.0187943
447 2 0.986474 0.35983 0.0682009
449 4 0.979055 0.349839 0.0343544
1507 4 0.807237 0.43725 0.0306887
290 4 0.862521 0.500123 0.0957969
72 2 0.940341 0.456324 0.0183887
73 4 0.928538 0.469046 0.0499991
1032 2 0.500731 0.380001 0.402993
289 4 0.835838 0.541651 0.0432115
288 2 0.84918 0.520887 0.0695053
1445 4 0.627142 0.596893 0.0955467
876 2 0.975128 0.657106 0.0359509
877 4 0.973915 0.621674 0.0293557
1236 2 0.572615 0.705761 0.0104149
1238 4 0.553415 0.736172 0.0130519
878 4 0.97634 0.692538 0.0425458
1168 4 0.558012 0.80249 0.0845409
1167 2 0.538756 0.812746 0.0558286
484 4 0.740036 0.812696 0.0423825
483 2 0.757459 0.791531 0.0189523
141 2 0.902216 0.810492 0.0638848
813 2 0.598333 0.899101 0.0792219
815 4 0.626426 0.879451 0.0680394
1418 4 0.73377 0.840525 0.0646048
1416 2 0.744222 0.874821 0.0684684
1417 4 0.754674 0.909118 0.0723322
561 2 0.866779 0.910526 0.0533852
563 4 0.875796 0.879449 0.0693033
562 4 0.857761 0.941602 0.0374656
143 4 0.886868 0.842077 0.0556849
1386 2 0.956039 0.9279 0.00701343
1085 4 0.530843 0.983182 0.0684361
527 4 0.821453 0.942136 0.0243365
525 2 0.787833 0.933826 0.0142817
526 4 0.754213 0.925516 0.00422736
300 2 0.888089 0.977075 0.0170284
301 4 0.890311 0.948444 0.0388403
712 4 0.996824 0.979769 0.0672841
1387 4 0.934472 0.947723 0.0280469
1130 4 0.539804 0.0542418 0.145282
1128 2 0.571479 0.0527484 0.12811
1129 4 0.603153 0.0512548 0.110937
256 4 0.613388 0.0160602 0.158691
1230 2 0.746028 0.0379753 0.150886
1232 4 0.757434 0.0616659 0.126207
1115 4 0.842114 0.0192084 0.154137
1113 2 0.840591 0.0551704 0.151948
1114 4 0.839067 0.0911334 0.149758
1466 4 0.631695 0.163534 0.0945486
1324 4 0.732784 0.151964 0.130309
1323 2 0.73452 0.131206 0.100873
1302 2 0.80846 0.121774 0.155203
1304 4 0.823151 0.117411 0.12256
1226 4 0.709915 0.236373 0.123131
1224 2 0.728073 0.224323 0.151862
103 4 0.906289 0.182642 0.15369
102 2 0.897621 0.214964 0.167126
376 4 0.745509 0.292928 0.122005
375 2 0.711518 0.298534 0.13266
377 4 0.677526 0.30414 0.143316
795 2 0.983511 0.338657 0.170238
198 2 0.890317 0.383745 0.135333
200 4 0.854849 0.388891 0.139317
448 4 0.993892 0.369821 0.102047
199 4 0.925787 0.378598 0.13135
1277 4 0.937508 0.388092 0.167291
228 2 0.514725 0.42693 0.148803
229 4 0.536858 0.400792 0.160089
597 2 0.640386 0.423995 0.15725
599 4 0.646446 0.436741 0.124065
179 4 0.679865 0.44155 0.123648
177 2 0.702504 0.469047 0.129291
725 4 0.687948 0.923571 0.491153
1443 2 0.634893 0.56639 0.113151
1444 4 0.642645 0.535887 0.130755
1409 4 0.636659 0.559138 0.157451
178 4 0.725141 0.496543 0.134935
510 2 0.728679 0.553222 0.127356
511 4 0.709742 0.583911 0.127121
512 4 0.747615 0.522534 0.127591
1248 2 0.575748 0.63361 0.113175
1249 4 0.541383 0.644469 0.111922
1104 2 0.51189 0.589808 0.125967
1105 4 0.540403 0.61177 0.128235
1250 4 0.610112 0.622751 0.114429
698 4 0.723018 0.657129 0.167899
697 4 0.688226 0.594977 0.156578
696 2 0.705622 0.626053 0.162238
1244 4 0.839605 0.643608 0.170013
1010 4 0.945821 0.716264 0.14694
733 4 0.961789 0.693189 0.118515
732 2 0.98938 0.671428 0.126618
8 3 0.915242 0.81127 0.157489
142 4 0.917565 0.778907 0.072084
1009 4 0.934685 0.773299 0.104224
1008 2 0.940253 0.744782 0.125582
9 3 0.949161 0.804408 0.114981
6 1 0.940454 0.824745 0.140091
814 4 0.570239 0.918751 0.0904054
1214 4 0.807288 0.85979 0.121963
1213 4 0.875407 0.883415 0.120138
1212 2 0.841347 0.871602 0.121051
7 3 0.930461 0.853739 0.127436
1084 4 0.54654 0.930772 0.115431
1083 2 0.538692 0.956977 0.0919334
1514 4 0.589741 0.933938 0.129844
1512 2 0.575402 0.923313 0.16118
1262 4 0.770017 0.945061 0.148663
1260 2 0.802668 0.935971 0.160981
893 4 0.835471 0.00587733 0.116171
891 2 0.864417 0.984396 0.115117
892 4 0.893363 0.962915 0.114064
1327 4 0.923312 0.98248 0.122581
1326 2 0.941947 0.970927 0.151211
257 4 0.585785 0.0153327 0.225318
1039 4 0.551696 0.0203184 0.229925
255 2 0.599586 0.0156964 0.192004
1495 4 0.641128 0.0237836 0.184026
253 4 0.624793 0.0121267 0.234569
1496 4 0.71156 0.0285243 0.198812
1494 2 0.676344 0.0261548 0.19142
1231 4 0.734622 0.0142842 0.175565
422 4 0.878704 0.0544973 0.243685
420 2 0.900822 0.0676593 0.218427
547 4 0.564393 0.194988 0.22776
1303 4 0.79377 0.126136 0.187845
113 4 0.765901 0.123807 0.207612
111 2 0.769298 0.113112 0.241882
421 4 0.92294 0.0808204 0.193169
345 2 0.959308 0.156736 0.215038
347 4 0.931368 0.134261 0.218863
1294 4 0.559611 0.236287 0.229798
546 2 0.544806 0.184133 0.199494
548 4 0.525218 0.173279 0.171229
1225 4 0.746232 0.212273 0.180595
717 2 0.758163 0.233709 0.231129
718 4 0.762465 0.20095 0.216681
104 4 0.888952 0.247286 0.180563
346 4 0.987248 0.179213 0.211213
1293 2 0.532823 0.260047 0.225517
1295 4 0.506035 0.283806 0.221235
1263 2 0.600617 0.321591 0.210165
1265 4 0.602408 0.311771 0.175513
1430 4 0.712832 0.280426 0.246116
776 4 0.738741 0.304776 0.239483
774 2 0.758123 0.309947 0.209516
775 4 0.777506 0.315118 0.179548
1118 4 0.890806 0.260841 0.213583
1116 2 0.86845 0.256338 0.241518
1375 4 0.650896 0.396738 0.223755
1264 4 0.598826 0.331411 0.244817
1374 2 0.675512 0.414817 0.242929
796 4 0.955664 0.355109 0.186184
1275 2 0.951896 0.410266 0.19182
598 4 0.634325 0.411248 0.190435
1272 2 0.792728 0.474886 0.209378