ITEM: TIMESTEP
497500
ITEM: NUMBER OF ATOMS
1520
ITEM: BOX BOUNDS pp pp pp
-6.9326749999999997e+00 6.9326749999999997e+00
-6.9326749999999997e+00 6.9326749999999997e+00
-6.9326749999999997e+00 6.9326749999999997e+00
ITEM: ATOMS id type xs ys zs
858 2 0.0243771 0.00516292 0.0300308
859 4 0.0241299 0.0104506 0.0657015
813 2 0.358549 0.0184981 0.0586043
815 4 0.33922 0.0246002 0.0287789
478 4 0.454849 0.0533436 0.0936264
1005 2 0.0463861 0.137298 0.0294944
1407 2 0.0966227 0.458261 0.00466606
1006 4 0.0815682 0.141855 0.0359672
1007 4 0.0112045 0.132742 0.0230218
1187 4 0.39482 0.185045 0.0146842
1185 2 0.430227 0.189374 0.0199763
1186 4 0.465635 0.193703 0.0252687
101 4 0.466377 0.186059 0.0744219
85 4 0.493201 0.223066 0.0308095
329 4 0.174455 0.340171 0.0707191
328 4 0.205948 0.275401 0.0668905
327 2 0.190201 0.307786 0.0688044
850 4 0.241869 0.277575 0.0763944
1153 4 0.391767 0.268736 0.0825826
581 4 0.362334 0.305771 0.0231065
1152 2 0.363338 0.281339 0.0643239
1154 4 0.33491 0.293942 0.0460647
1303 4 0.424783 0.30325 0.0196079
1356 2 0.233131 0.395314 0.0472594
592 4 0.174972 0.392196 0.0588255
1358 4 0.257849 0.39301 0.0211048
764 4 0.437136 0.374179 0.0829286
535 4 0.496311 0.721776 0.0605536
591 2 0.154644 0.420487 0.0495094
390 2 0.137636 0.490817 0.0861924
593 4 0.134317 0.448779 0.0401938
392 4 0.154768 0.462312 0.0722499
1409 4 0.109174 0.489097 0.0185207
1357 4 0.208412 0.397619 0.073414
1253 4 0.280471 0.424572 0.031068
1251 2 0.31653 0.424558 0.0314991
1252 4 0.352588 0.424544 0.03193
291 2 0.439512 0.479678 0.0748397
293 4 0.454288 0.508379 0.0587667
391 4 0.120504 0.519322 0.100134
25 3 0.0931438 0.567509 0.0429892
22 3 0.124541 0.527055 0.0595724
21 1 0.112172 0.542657 0.0330339
23 3 0.137515 0.554363 0.0145786
24 3 0.0941048 0.520902 0.0151405
86 4 0.48432 0.293178 0.0452003
650 4 0.398487 0.516316 0.006144
1281 2 0.451623 0.557018 0.0389423
1283 4 0.434222 0.525884 0.0336204
1471 4 0.230975 0.602779 0.0331036
375 2 0.489809 0.343241 0.388146
1470 2 0.256899 0.612138 0.00985015
1398 2 0.390634 0.656507 0.0156956
1282 4 0.469024 0.588151 0.044264
931 4 0.451203 0.591541 0.0744206
565 4 0.161491 0.0409294 0.450162
887 4 0.0398487 0.715733 0.0179956
1137 2 0.0900353 0.666662 0.0370727
1139 4 0.0831257 0.667054 0.0724635
558 2 0.237096 0.741119 0.999671
1400 4 0.384167 0.679236 0.0429349
622 4 0.191077 0.828668 0.0253188
559 4 0.244218 0.771106 0.0183923
1161 2 0.298058 0.798194 0.0353707
1163 4 0.324829 0.794238 0.0592056
1162 4 0.271287 0.802149 0.0115361
362 4 0.36257 0.793734 0.0579806
929 4 0.148034 0.8986 0.0727085
927 2 0.168172 0.869394 0.0662365
928 4 0.188309 0.840187 0.0597647
502 4 0.0396727 0.93382 0.472757
251 4 0.316003 0.936798 0.0284318
249 2 0.2886 0.917148 0.0156485
1234 4 0.259333 0.928758 0.0633557
1519 4 0.431729 0.0164047 0.0550116
517 4 0.456088 0.92456 0.0430923
1518 2 0.432353 0.980738 0.0602944
1520 4 0.432977 0.945071 0.065577
516 2 0.478575 0.936809 0.0177006
556 4 0.0302044 0.0117247 0.179285
814 4 0.377878 0.0123959 0.0884295
477 2 0.441321 0.0862846 0.0993089
598 4 0.486163 0.0530389 0.110652
597 2 0.494477 0.018299 0.105707
170 4 0.115679 0.125773 0.143442
168 2 0.137907 0.110828 0.167587
479 4 0.427793 0.119226 0.104991
771 2 0.404169 0.249147 0.140602
99 2 0.459901 0.208891 0.101573
100 4 0.453426 0.231723 0.128724
772 4 0.426985 0.221884 0.146652
983 4 0.0730123 0.351254 0.158619
849 2 0.250157 0.272678 0.111147
851 4 0.258445 0.267783 0.1459
773 4 0.381353 0.276409 0.134552
1021 4 0.0854351 0.377459 0.135712
1022 4 0.01898 0.397397 0.116018
1020 2 0.0522077 0.387428 0.125865
532 4 0.154347 0.352294 0.101231
531 2 0.148548 0.356555 0.136567
763 4 0.442463 0.34432 0.148363
762 2 0.4398 0.35925 0.115646
723 2 0.0119344 0.49442 0.167708
725 4 0.0363418 0.473223 0.151727
607 4 0.351752 0.450885 0.155767
608 4 0.400467 0.477138 0.109514
606 2 0.37611 0.464012 0.132641
292 4 0.424736 0.450977 0.0909128
547 4 0.263368 0.562369 0.0746455
546 2 0.282083 0.58713 0.0930037
452 4 0.380329 0.573092 0.171089
11 1 0.301336 0.646149 0.147596
15 3 0.325493 0.648848 0.125506
548 4 0.300797 0.611892 0.111362
13 3 0.273672 0.634392 0.132884
224 4 0.468173 0.628539 0.175375
930 2 0.455153 0.598818 0.109518
932 4 0.459104 0.606095 0.144616
636 2 0.122585 0.676382 0.159822
638 4 0.142298 0.675925 0.12963
1197 2 0.240652 0.686407 0.118109
1199 4 0.209641 0.699234 0.104912
14 3 0.295123 0.675983 0.161425
1198 4 0.271664 0.67358 0.131306
361 4 0.385029 0.800351 0.126196
360 2 0.373799 0.797042 0.0920883
1078 4 0.373534 0.836678 0.131153
1202 4 0.460519 0.795757 0.11255
1200 2 0.485766 0.816637 0.0974829
1135 4 0.46893 0.779445 0.143025
1374 2 0.0149919 0.874679 0.161196
1077 2 0.366223 0.848881 0.164289
386 4 0.0168355 0.977842 0.177451
384 2 0.00223928 0.953501 0.155206
1117 4 0.14278 0.989825 0.154837
1116 2 0.172592 0.977337 0.138845
1118 4 0.202403 0.964849 0.122853
346 4 0.225144 0.978649 0.145111
1233 2 0.275099 0.957079 0.0791595
1235 4 0.290866 0.9854 0.0949624
423 2 0.131836 0.0225375 0.210566
424 4 0.154854 0.0470471 0.223601
1271 4 0.313035 0.0304541 0.228045
176 4 0.486977 0.0725561 0.218517
175 4 0.455559 0.0176936 0.253226
174 2 0.471268 0.0451247 0.235872
169 4 0.160135 0.0958831 0.191731
949 4 0.0998201 0.116081 0.199439
404 4 0.156236 0.0914453 0.226517
948 2 0.0995882 0.122534 0.234918
402 2 0.190677 0.0828265 0.23284
403 4 0.225117 0.0742077 0.239164
646 4 0.308366 0.252471 0.246445
981 2 0.0604517 0.318273 0.166028
673 4 0.0251032 0.26274 0.197728
982 4 0.0478907 0.285292 0.173438
979 4 0.174922 0.321083 0.250435
978 2 0.201725 0.298536 0.259017
980 4 0.228528 0.275989 0.267599
752 4 0.247402 0.294033 0.234976
751 4 0.265189 0.299546 0.165298
750 2 0.256296 0.29679 0.200137
769 4 0.488109 0.310718 0.232045
533 4 0.142751 0.360817 0.171904
1244 4 0.143059 0.339896 0.261776
1243 4 0.153529 0.382478 0.204514
1242 2 0.148293 0.361188 0.233146
262 4 0.181994 0.368475 0.179081
261 2 0.216657 0.376732 0.17353
263 4 0.251319 0.384989 0.167979
839 4 0.43105 0.421139 0.206585
837 2 0.42576 0.422809 0.242217
1421 4 0.122299 0.583073 0.223171
451 4 0.335583 0.516761 0.176198
450 2 0.357956 0.544926 0.173643
1419 2 0.115444 0.612447 0.203408
1420 4 0.108588 0.641822 0.183645
637 4 0.102872 0.676839 0.190015
12 3 0.310624 0.62501 0.171419
446 4 0.478886 0.936751 0.414341
222 2 0.486695 0.602388 0.191911
1511 4 0.355878 0.705631 0.24583
1134 2 0.473982 0.789627 0.177248
1136 4 0.479035 0.799808 0.211471
748 4 0.488241 0.833156 0.20248
1375 4 0.0385184 0.855232 0.180398
551 4 0.110983 0.890341 0.185639
549 2 0.126153 0.915933 0.206018
745 4 0.351203 0.897794 0.193272
1079 4 0.358911 0.861084 0.197426
747 2 0.48388 0.839757 0.237662
555 2 0.0639655 0.00253351 0.17056
557 4 0.0977268 0.993343 0.161835
425 4 0.108818 0.998028 0.197532
550 4 0.141323 0.941525 0.226397
755 4 0.156118 0.96538 0.249404
744 2 0.326655 0.923613 0.187686
345 2 0.255331 0.981798 0.164585
347 4 0.285518 0.984947 0.18406
746 4 0.302106 0.949432 0.1821
1069 4 0.0263406 0.0874736 0.315141
594 2 0.214852 0.0408463 0.296735
595 4 0.208134 0.0348019 0.331645
596 4 0.22157 0.0468902 0.261824
1269 2 0.313941 0.0246587 0.263625
1270 4 0.314847 0.018863 0.299206
1474 4 0.417217 0.0597588 0.331123
1473 2 0.423377 0.0362345 0.304494
1475 4 0.429536 0.0127102 0.277866
484 4 0.413501 0.0803496 0.30128
1404 2 0.123745 0.116262 0.321116
1406 4 0.122305 0.103719 0.287337
950 4 0.0993563 0.128986 0.270396
1027 4 0.402799 0.166633 0.325761
483 2 0.396067 0.108314 0.315924
1368 2 0.481448 0.116311 0.261559
1369 4 0.482128 0.0807969 0.255338
759 2 0.164865 0.218866 0.298256
760 4 0.155025 0.207955 0.265324
761 4 0.174704 0.229777 0.331189
647 4 0.251568 0.256269 0.290732
645 2 0.279967 0.25437 0.268589
787 4 0.279904 0.195517 0.293223
786 2 0.301901 0.173979 0.312001
505 4 0.231387 0.265144 0.320772
236 4 0.318509 0.396766 0.245548
394 4 0.296356 0.386511 0.331999
234 2 0.353156 0.400799 0.254697
1206 2 0.463773 0.351818 0.314336
1207 4 0.477834 0.374712 0.290283
235 4 0.387804 0.404833 0.263846
838 4 0.42047 0.424479 0.277849
1391 4 0.0622851 0.0343602 0.485508
84 2 0.488761 0.258122 0.0380051
462 2 0.0172489 0.689824 0.306371
1510 4 0.372945 0.67992 0.311017
1509 2 0.364411 0.692775 0.278424
1461 2 0.0815751 0.810017 0.288886
1328 4 0.017408 0.797279 0.324735
826 4 0.0782327 0.755362 0.326802
1463 4 0.0758883 0.789667 0.318107
98 4 0.425493 0.825124 0.309115
1462 4 0.0872623 0.830368 0.259664
965 4 0.070992 0.863165 0.256032
963 2 0.0887911 0.885854 0.277685
96 2 0.393854 0.842426 0.309319
97 4 0.362215 0.859727 0.309524
749 4 0.479518 0.846358 0.272845
753 2 0.145655 0.948503 0.279506
964 4 0.106591 0.908542 0.299337
754 4 0.135192 0.931626 0.309607
389 4 0.457034 0.978819 0.239329
387 2 0.467505 0.958235 0.267024
388 4 0.477976 0.937651 0.29472
1068 2 0.0471391 0.0808938 0.343856
1123 4 0.0712217 0.0425448 0.390696
1070 4 0.0679382 0.0743136 0.37257
1122 2 0.0872935 0.0124347 0.402336
1172 4 0.230126 0.0175777 0.355825
1405 4 0.125185 0.128805 0.354895
788 4 0.323899 0.152441 0.330779
485 4 0.378634 0.13628 0.330568
1397 4 0.356042 0.146239 0.409107
1460 4 0.204509 0.213593 0.333346
1459 4 0.192297 0.168672 0.388434
1458 2 0.198403 0.191133 0.36089
124 4 0.255308 0.251257 0.388234
301 4 0.137252 0.201495 0.388734
1026 2 0.37487 0.178293 0.345367
1028 4 0.34694 0.189951 0.364973
300 2 0.121687 0.231946 0.400174
506 4 0.277494 0.23597 0.367938
504 2 0.25444 0.250557 0.344355
1178 4 0.383339 0.320814 0.376977
1176 2 0.376542 0.289029 0.36136
1177 4 0.369745 0.257244 0.345743
377 4 0.476536 0.32121 0.362869
184 4 0.174276 0.366187 0.348186
183 2 0.198507 0.357009 0.373267
185 4 0.222738 0.347831 0.398348
393 2 0.275354 0.369444 0.355833
395 4 0.254353 0.352376 0.379667
574 4 0.327195 0.383364 0.316465
575 4 0.372367 0.347016 0.359358
573 2 0.349782 0.36519 0.337911
1208 4 0.449712 0.328925 0.338389
455 4 0.207609 0.435205 0.411762
308 4 0.187548 0.407997 0.406989
453 2 0.229083 0.463271 0.418941
299 4 0.272104 0.468008 0.364337
297 2 0.305987 0.456647 0.369164
298 4 0.33987 0.445286 0.373992
628 4 0.373504 0.439029 0.423671
45 3 0.240234 0.517821 0.404666
42 3 0.287731 0.543033 0.407036
1023 2 0.282093 0.608085 0.409719
1024 4 0.292366 0.642151 0.403854
1377 2 0.351855 0.658325 0.371945
1379 4 0.327716 0.647335 0.396377
463 4 0.0343857 0.674722 0.334275
827 4 0.139236 0.751482 0.365088
680 4 0.161619 0.723696 0.384443
825 2 0.108732 0.753423 0.345944
668 4 0.248634 0.743392 0.37304
678 2 0.162545 0.701457 0.41282
666 2 0.213632 0.745366 0.364592
667 4 0.178627 0.74734 0.356147
1378 4 0.375995 0.669314 0.347512
1326 2 0.0235345 0.785753 0.35835
1327 4 0.0296615 0.774226 0.391966
1258 4 0.167462 0.763186 0.391822
1037 4 0.382995 0.783277 0.330336
1035 2 0.414401 0.767183 0.337757
177 2 0.481564 0.806545 0.373774
178 4 0.459422 0.791175 0.397731
1036 4 0.445807 0.751089 0.345178
83 4 0.425673 0.829556 0.370637
81 2 0.415574 0.846511 0.400818
82 4 0.405476 0.863465 0.431
1124 4 0.103365 0.982325 0.413976
1171 4 0.23923 0.969321 0.408645
1170 2 0.234678 0.993449 0.382235
444 2 0.483025 0.964503 0.39169
445 4 0.487164 0.992255 0.369039
1174 4 0.45064 0.949521 0.429514
561 2 0.0240243 0.0683232 0.480744
564 2 0.179901 0.0275972 0.478157
1115 4 0.426415 0.0811833 0.485867
1113 2 0.458308 0.0643577 0.48549
1114 4 0.490201 0.047532 0.485113
563 4 0.00478782 0.0850827 0.455259
1395 2 0.378595 0.138915 0.436276
1396 4 0.401148 0.131592 0.463444
364 4 0.424881 0.150966 0.434635
363 2 0.448689 0.173287 0.449976
64 4 0.338178 0.173787 0.423171
63 2 0.341665 0.209589 0.425719
65 4 0.345152 0.24539 0.428268
103 4 0.366683 0.252388 0.489633
365 4 0.472497 0.195608 0.465319
1370 4 0.480767 0.151825 0.26778
112 4 0.000557726 0.32252 0.453357
433 4 0.0263661 0.300257 0.453479
432 2 0.060038 0.291586 0.44392
434 4 0.0937102 0.282915 0.434361
302 4 0.106122 0.262397 0.411612
125 4 0.253284 0.262614 0.459428
123 2 0.254296 0.256935 0.423831
829 4 0.320138 0.270979 0.433425
828 2 0.320829 0.296484 0.458909
830 4 0.321521 0.321989 0.484393
1298 4 0.379435 0.278459 0.467874
1296 2 0.403416 0.304361 0.460498
1297 4 0.427396 0.330263 0.453121
307 4 0.115822 0.410911 0.413948
1076 4 0.331954 0.35766 0.482613
1074 2 0.306368 0.381964 0.47519
1075 4 0.280782 0.406267 0.467766
895 4 0.481655 0.357584 0.498823
896 4 0.429315 0.366396 0.449993
894 2 0.455485 0.36199 0.474408
306 2 0.151685 0.409454 0.410469
1362 2 0.112487 0.4712 0.480741
1363 4 0.118215 0.462952 0.446106
454 4 0.250558 0.491338 0.426119
629 4 0.351644 0.505636 0.440622
627 2 0.362574 0.472333 0.432147
41 1 0.261719 0.532485 0.424721
44 3 0.247347 0.558804 0.439575
1025 4 0.271821 0.574019 0.415583
43 3 0.272432 0.51077 0.447821
679 4 0.16347 0.679222 0.441195
324 2 0.287898 0.658549 0.47378
326 4 0.27976 0.629717 0.453707
1465 4 0.468491 0.590255 0.459465
1464 2 0.458647 0.622871 0.447644
1478 4 0.330084 0.700911 0.479462
325 4 0.296036 0.687381 0.493853
1476 2 0.360603 0.713456 0.49401
1466 4 0.448802 0.655486 0.435823
1257 2 0.170749 0.783964 0.421117
353 4 0.183767 0.807131 0.481662
1259 4 0.174034 0.804738 0.450409
672 2 0.00655361 0.264021 0.228627
162 2 0.480888 0.783842 0.495913
1173 2 0.427523 0.922657 0.436172
1175 4 0.404405 0.895793 0.44283
501 2 0.048085 0.903026 0.489532
1121 4 0.00151263 0.249545 0.124505
1390 4 0.055886 0.962723 0.490867
1389 2 0.0590854 0.998542 0.488188
1424 4 0.196082 0.841016 0.487467
250 4 0.261197 0.897499 0.00286592
602 4 0.471798 0.214305 0.494088
653 4 0.239881 0.0513417 0.00161143
1138 4 0.0969447 0.66627 0.00168177
689 4 0.481027 0.966539 0.966509
562 4 0.0432603 0.0515639 0.50623
866 4 0.203992 0.049922 0.522677
566 4 0.198311 0.0142655 0.506153
1503 2 0.32253 0.073509 0.554
1504 4 0.301212 0.0745398 0.524933
865 4 0.268401 0.0786229 0.507531
864 2 0.236196 0.0642727 0.515104
889 4 0.493487 0.0288294 0.603432
767 4 0.270566 0.177484 0.500575
765 2 0.293755 0.153731 0.514663
766 4 0.316944 0.129978 0.528751
1505 4 0.343849 0.0724789 0.583066
56 4 0.362454 0.0974571 0.563514
1160 4 0.0131614 0.179038 0.525857
1158 2 0.045731 0.18005 0.541305
1159 4 0.0782981 0.181064 0.556753
816 2 0.144168 0.191212 0.565395
818 4 0.109872 0.181861 0.559345
817 4 0.178466 0.200563 0.571446
253 4 0.174287 0.234343 0.563868
104 4 0.315811 0.212012 0.520993
102 2 0.341247 0.2322 0.505313
600 2 0.49746 0.216863 0.519292
1343 4 0.0542645 0.249785 0.574446
881 4 0.0999255 0.317956 0.581041
252 2 0.187922 0.261175 0.544005
254 4 0.201556 0.288008 0.524142
609 2 0.284616 0.406505 0.554886
611 4 0.270334 0.38164 0.576753
733 4 0.452889 0.364602 0.533085
732 2 0.464748 0.36062 0.566908
1364 4 0.106759 0.479447 0.515376
1432 4 0.332741 0.440119 0.539394
610 4 0.298898 0.431369 0.533018
1431 2 0.340631 0.466707 0.562443
1433 4 0.348522 0.493294 0.585491
545 4 0.0772399 0.537553 0.579556
543 2 0.108416 0.540105 0.561614
544 4 0.139593 0.542658 0.543673
1051 4 0.250134 0.567038 0.519062
1050 2 0.254455 0.533636 0.531947
1052 4 0.258776 0.500233 0.544832
331 4 0.000831236 0.595959 0.589261
718 4 0.263975 0.738373 0.553302
717 2 0.264319 0.740591 0.589293
135 2 0.416892 0.700538 0.56926
137 4 0.400986 0.674081 0.587899
136 4 0.432797 0.726995 0.55062
1477 4 0.391122 0.726001 0.508558
352 4 0.185529 0.751147 0.527096
351 2 0.184648 0.779139 0.504379
304 4 0.2656 0.761323 0.525128
303 2 0.296167 0.777248 0.514523
305 4 0.326734 0.793174 0.503919
933 2 0.384377 0.788172 0.53806
934 4 0.386202 0.822614 0.527531
935 4 0.382553 0.75373 0.548589
1145 4 0.455306 0.826927 0.524952
1423 4 0.220065 0.882451 0.541408
1067 4 0.187312 0.886319 0.55146
1422 2 0.208073 0.861733 0.514438
1346 4 0.388606 0.903815 0.512094
1344 2 0.401853 0.870533 0.507945
1345 4 0.4151 0.83725 0.503797
1143 2 0.47966 0.839916 0.54816
1033 4 0.00138665 0.0523065 0.90822
1049 4 0.482054 0.653801 0.8771
888 2 0.467943 0.0525106 0.612764
798 2 0.0368237 0.14557 0.658972
55 4 0.405837 0.118805 0.617029
54 2 0.384146 0.108131 0.590271
958 4 0.386073 0.116382 0.650234
1342 4 0.110211 0.27 0.615226
1514 4 0.315392 0.185433 0.63921
1512 2 0.350422 0.179142 0.633407
1513 4 0.385453 0.172851 0.627603
1341 2 0.0822375 0.259893 0.594836
879 2 0.135594 0.321779 0.58472
880 4 0.171263 0.325601 0.588399
415 4 0.260408 0.265673 0.657106
832 4 0.329009 0.351097 0.685359
1300 4 0.412491 0.256224 0.609208
1299 2 0.406033 0.265263 0.643515
833 4 0.277635 0.321329 0.644415
831 2 0.303322 0.336213 0.664887
734 4 0.476606 0.356638 0.600729
191 4 0.430251 0.443648 0.642954
189 2 0.436653 0.410494 0.655612
661 4 0.239726 0.523646 0.662256
660 2 0.269423 0.534518 0.644927
330 2 0.0321115 0.613901 0.5891
332 4 0.0633925 0.631843 0.588938
340 4 0.101644 0.635027 0.598225
339 2 0.128103 0.633283 0.622664
341 4 0.154562 0.63154 0.647103
440 4 0.186902 0.617274 0.647922
438 2 0.219743 0.63125 0.642773
822 2 0.12029 0.725742 0.646228
823 4 0.123758 0.710042 0.613949
719 4 0.264664 0.742809 0.625284
1451 4 0.0257383 0.836572 0.582944
1096 4 0.00706113 0.986884 0.961892
824 4 0.116821 0.741441 0.678506
342 2 0.31541 0.784009 0.638602
344 4 0.290163 0.766662 0.619574
1403 4 0.473727 0.762092 0.606462
923 4 0.0353909 0.868925 0.601679
921 2 0.0509995 0.89656 0.618799
139 4 0.151234 0.912182 0.648668
1066 4 0.177409 0.91042 0.618711
1065 2 0.182361 0.898369 0.585085
1381 4 0.415635 0.845066 0.634449
1380 2 0.397757 0.86506 0.610345
1382 4 0.379879 0.885054 0.58624
922 4 0.0666076 0.924196 0.635919
1418 4 0.394025 0.00413261 0.692221
1352 4 0.388945 0.0170745 0.729615
1350 2 0.405621 0.0383568 0.753478
799 4 0.0521594 0.148119 0.69151
957 2 0.394551 0.132969 0.681111
959 4 0.40303 0.149556 0.711988
475 4 0.432613 0.165812 0.724406
474 2 0.4648 0.153799 0.735364
476 4 0.496986 0.141785 0.746324
260 4 0.0637526 0.249239 0.682379
259 4 0.124691 0.210938 0.677781
258 2 0.0942217 0.230089 0.68008
1091 4 0.212748 0.215139 0.73751
416 4 0.293873 0.240832 0.715967
414 2 0.277141 0.253253 0.686537
1301 4 0.399575 0.274303 0.677822
1355 4 0.335671 0.268499 0.739111
1425 2 0.249249 0.86577 0.931015
149 4 0.477496 0.290074 0.713528
1004 4 0.0632626 0.368429 0.708357
233 4 0.0334416 0.354816 0.72389
1003 4 0.107692 0.389611 0.65564
1002 2 0.0854772 0.37902 0.681998
913 4 0.352181 0.340586 0.7098
912 2 0.380254 0.35364 0.69131
914 4 0.408327 0.366693 0.672819
190 4 0.443055 0.37734 0.66827
1093 4 0.141776 0.541916 0.738691
662 4 0.29912 0.545391 0.627598
439 4 0.252584 0.645226 0.637624
142 4 0.313968 0.585744 0.728827
141 2 0.340235 0.610208 0.732294
143 4 0.366502 0.634671 0.735762
187 4 0.395069 0.613565 0.741895
1045 4 0.173093 0.754123 0.774181
639 2 0.487942 0.736657 0.676693
164 4 0.449884 0.789442 0.513458
1046 4 0.179977 0.746423 0.702802
1044 2 0.176535 0.750273 0.738492
1291 4 0.18396 0.78457 0.69505
1290 2 0.180525 0.820339 0.692013
343 4 0.340657 0.801356 0.65763
968 4 0.477769 0.800789 0.720633
641 4 0.470133 0.766005 0.687737
1292 4 0.17709 0.856108 0.688977
1494 2 0.212941 0.867855 0.743323
1496 4 0.207115 0.862852 0.708089
659 4 0.309568 0.885917 0.694546
140 4 0.187534 0.926205 0.709392
138 2 0.169384 0.919193 0.67903
657 2 0.32217 0.912737 0.715095
658 4 0.334771 0.939558 0.735645
1417 4 0.371304 0.94997 0.734076
1416 2 0.382665 0.977051 0.713148
1180 4 0.0861479 0.0124389 0.753425
1317 2 0.094773 0.0119427 0.826631
1318 4 0.0882671 0.0106457 0.791185
782 4 0.271021 0.0632934 0.843474
780 2 0.305974 0.0691897 0.836845
1481 4 0.453105 0.0553082 0.791945
1351 4 0.422297 0.0596386 0.777339
694 4 0.29393 0.0954495 0.761896
693 2 0.285165 0.130396 0.76038
1480 4 0.476273 0.117973 0.764779
1479 2 0.464689 0.0866405 0.778362
1090 4 0.25716 0.183081 0.78443
1089 2 0.234954 0.19911 0.76097
695 4 0.2764 0.165343 0.758865
1354 4 0.396843 0.238465 0.762727
697 4 0.311688 0.296695 0.753308
696 2 0.30257 0.32691 0.770754
1353 2 0.366257 0.253481 0.750919
604 4 0.425482 0.252975 0.781149
605 4 0.458878 0.303885 0.742491
603 2 0.442181 0.27843 0.76182
232 4 0.00499201 0.354288 0.790162
231 2 0.0192167 0.354552 0.757026
1472 4 0.282824 0.621498 0.986597
1366 4 0.144308 0.374367 0.833353
698 4 0.293453 0.357125 0.7882
323 4 0.323349 0.3834 0.797979
1094 4 0.144359 0.496237 0.794444
1204 4 0.197792 0.51396 0.799518
1203 2 0.203329 0.478365 0.801182
1205 4 0.208865 0.44277 0.802846
427 4 0.226884 0.416149 0.824073
955 4 0.495612 0.497677 0.748593
1092 2 0.143068 0.519076 0.766567
188 4 0.452551 0.574424 0.761014
956 4 0.472128 0.554188 0.78676
954 2 0.48387 0.525932 0.767677
186 2 0.42381 0.593995 0.751454
290 4 0.245719 0.739518 0.813672
288 2 0.28095 0.741762 0.806313
289 4 0.31618 0.744005 0.798953
847 4 0.219387 0.760452 0.822974
846 2 0.189466 0.779758 0.828661
480 2 0.318114 0.793669 0.758025
482 4 0.305857 0.824231 0.743324
481 4 0.330372 0.763107 0.772725
1324 4 0.422104 0.784271 0.798227
966 2 0.467436 0.797479 0.755023
967 4 0.457103 0.79417 0.789413
269 4 0.200801 0.844644 0.792508
1495 4 0.218767 0.872857 0.778557
267 2 0.202388 0.863585 0.823153
1181 4 0.0224653 0.980351 0.764219
1179 2 0.0543066 0.996395 0.758822
1319 4 0.101279 0.01324 0.862077
1150 4 0.18809 0.0474495 0.869523
1149 2 0.215249 0.0650673 0.853635
1151 4 0.242407 0.0826851 0.837747
781 4 0.340927 0.0750857 0.830215
1349 4 0.100478 0.148419 0.856406
868 4 0.0562534 0.109525 0.896435
867 2 0.0920531 0.111046 0.900494
869 4 0.127853 0.112567 0.904553
193 4 0.343332 0.104695 0.84827
192 2 0.346768 0.140185 0.842882
1146 2 0.375621 0.102597 0.906652
1148 4 0.345931 0.100225 0.886321
1147 4 0.40531 0.104969 0.926982
511 4 0.440181 0.10809 0.918362
1347 2 0.100501 0.183419 0.84772
1348 4 0.100525 0.218418 0.839034
1100 4 0.123053 0.244325 0.846661
280 4 0.265361 0.204534 0.89248
279 2 0.249416 0.235961 0.88483
700 4 0.254067 0.170946 0.894756
194 4 0.350204 0.175676 0.837493
1098 2 0.134632 0.248659 0.880536
1099 4 0.146212 0.252994 0.914411
281 4 0.23347 0.267388 0.877181
1365 2 0.161363 0.406055 0.831031
426 2 0.234378 0.417052 0.859335
514 4 0.214848 0.391193 0.89947
428 4 0.241871 0.417955 0.894597
321 2 0.321227 0.4031 0.828109
322 4 0.319105 0.4228 0.858239
702 2 0.105801 0.413784 0.893168
704 4 0.120228 0.413239 0.860123
1367 4 0.178419 0.437743 0.82871
871 4 0.353185 0.481319 0.893135
870 2 0.324745 0.466255 0.876866
872 4 0.296306 0.451191 0.860597
1220 4 0.38242 0.417409 0.922994
862 4 0.45031 0.45976 0.902231
240 2 0.00874834 0.539261 0.914158
398 4 0.375685 0.56253 0.918233
901 4 0.0546998 0.634711 0.890187
900 2 0.019705 0.642223 0.88579
378 2 0.231022 0.617328 0.908015
380 4 0.248447 0.634057 0.881241
776 4 0.374194 0.646915 0.894004
396 2 0.389636 0.593026 0.904977
397 4 0.403588 0.623522 0.891721
1048 4 0.464732 0.713793 0.913193
1047 2 0.473393 0.683797 0.895147
1156 4 0.180891 0.698414 0.898969
317 4 0.244919 0.687678 0.878233
632 4 0.147115 0.801706 0.873992
630 2 0.13278 0.780878 0.899704
848 4 0.159544 0.799064 0.834348
899 4 0.330515 0.807012 0.886465
898 4 0.400526 0.817788 0.872898
897 2 0.36552 0.8124 0.879681
1325 4 0.453291 0.771108 0.861911
1323 2 0.437698 0.77769 0.830069
268 4 0.203976 0.882526 0.853798
1427 4 0.276671 0.870132 0.908006
1499 4 0.315882 0.953672 0.874148
1497 2 0.281389 0.944416 0.879139
1498 4 0.246895 0.935161 0.88413
1279 4 0.00430902 0.0849289 0.929595
860 4 0.0246244 0.999875 0.99436
53 4 0.999843 0.997505 0.635257
652 4 0.288652 0.0602118 0.949225
651 2 0.264267 0.0557767 0.975418
512 4 0.492634 0.0590934 0.911313
510 2 0.466408 0.0835914 0.914837
1280 4 0.0336181 0.147049 0.951588
1278 2 0.0189636 0.115989 0.940592
701 4 0.228845 0.17468 0.962221
80 4 0.0329525 0.229933 0.934618
94 4 0.141915 0.216546 0.919384
95 4 0.202687 0.206659 0.956943
93 2 0.172301 0.211603 0.938163
699 2 0.241456 0.172813 0.928489
78 2 0.0505863 0.252061 0.956974
79 4 0.0682201 0.274189 0.97933
580 4 0.326989 0.320294 0.961939
579 2 0.344661 0.313032 0.992523
1304 4 0.457051 0.322437 0.958026
1302 2 0.440917 0.312844 0.988817
1437 2 0.023281 0.425101 0.940413
1438 4 0.0575512 0.422729 0.929445
513 2 0.194927 0.407923 0.924443
703 4 0.0913743 0.414328 0.926213
1408 4 0.0840714 0.427423 0.990811
242 4 0.00945818 0.503594 0.919427
515 4 0.175006 0.424653 0.949416
1241 4 0.255532 0.471519 0.930058
1240 4 0.30697 0.456973 0.978475
1239 2 0.281251 0.464246 0.954267
1218 2 0.35109 0.421378 0.940404
1219 4 0.319761 0.425348 0.957815
861 2 0.480954 0.444949 0.914147
241 4 0.00803831 0.574928 0.908889
338 4 0.310085 0.515246 0.992927
336 2 0.298124 0.549045 0.989061
648 2 0.387243 0.538224 0.9798
649 4 0.375999 0.560133 0.953456
239 4 0.0129691 0.653997 0.984391
238 4 0.00894122 0.593728 0.944983
237 2 0.0109552 0.623862 0.964687
800 4 0.0214883 0.14302 0.626434
379 4 0.213595 0.600598 0.934789
1399 4 0.3971 0.633778 0.988456
153 2 0.0932552 0.72962 0.971815
155 4 0.0704901 0.727938 0.999732
1426 4 0.221827 0.861409 0.954024
631 4 0.118446 0.760051 0.925416
154 4 0.11602 0.731301 0.943898
560 4 0.229975 0.711133 0.980949
1155 2 0.189506 0.709906 0.932046
1157 4 0.198122 0.721398 0.965124
992 4 0.297445 0.728428 0.956883
316 4 0.288784 0.702823 0.933443
315 2 0.266852 0.69525 0.905838
775 4 0.385254 0.708288 0.930236
991 4 0.365062 0.739072 0.934162
990 2 0.331254 0.73375 0.945522
774 2 0.379724 0.677602 0.91212
1209 2 0.12617 0.925025 0.97531
1210 4 0.0953543 0.917517 0.958151
1211 4 0.156985 0.932533 0.992469
623 4 0.191162 0.838417 0.953859
890 4 0.442398 0.076192 0.622096
59 4 0.00641543 0.118462 0.605548
938 4 0.0175594 0.488491 0.989153
337 4 0.286164 0.582846 0.985194
885 2 0.0199568 0.700338 0.992155
621 2 0.191119 0.833542 0.989588
503 4 0.056497 0.872232 0.506306
656 4 0.574114 0.00322087 0.0452524
654 2 0.608436 0.00426352 0.0342382
590 4 0.694945 0.987054 0.0101931
16 1 0.890278 0.0276812 0.0815709
18 3 0.859885 0.0350208 0.0696428
19 3 0.904396 0.0551158 0.0945297
683 4 0.868659 0.0698276 0.0560299
1444 4 0.92209 0.0475539 0.064059
1445 4 0.988226 0.0620674 0.0392191
1443 2 0.955158 0.0548106 0.0516389
663 2 0.735861 0.101056 0.0138743
665 4 0.703693 0.0862147 0.0206112
664 4 0.768029 0.115897 0.00713741
163 4 0.511892 0.778242 0.47837
1063 4 0.885381 0.0116251 0.438879
223 4 0.505218 0.576238 0.208448
844 4 0.567458 0.813708 0.403553
892 4 0.998958 0.0746689 0.420378
905 4 0.800862 0.802064 0.0179852
1277 4 0.87275 0.296734 0.0295902
1295 4 0.688863 0.361168 0.0231519
1293 2 0.701268 0.377373 0.0528833
1294 4 0.713673 0.393577 0.0826143
490 4 0.739671 0.424498 0.0947649
122 4 0.892353 0.494277 0.0526971
572 4 0.969115 0.4307 0.0689001
936 2 0.990093 0.481722 0.0115188
937 4 0.962628 0.474953 0.0338843
1245 2 0.658459 0.567895 0.0551941
1247 4 0.673955 0.584864 0.0274033
1111 4 0.800647 0.562853 0.113604
120 2 0.881428 0.504904 0.0200148
1501 4 0.538464 0.868566 0.445158
710 4 0.541581 0.651564 0.0472479
1331 4 0.748682 0.620793 0.0391347
1329 2 0.728896 0.646515 0.0234089
840 2 0.953853 0.623457 0.0737414
841 4 0.924611 0.643481 0.0670854
708 2 0.553389 0.660288 0.0801854
534 2 0.515449 0.743691 0.0392497
802 4 0.833908 0.787135 0.0143529
735 2 0.996621 0.113256 0.0915827
1330 4 0.70911 0.672237 0.00768216
227 4 0.964657 0.732389 0.021379
412 4 0.561843 0.758922 0.0418975
1201 4 0.511013 0.837518 0.0824158
536 4 0.534588 0.765606 0.0179454
411 2 0.577005 0.786196 0.0238227
413 4 0.592166 0.813469 0.00574808
940 4 0.69088 0.810717 0.0297596
903 2 0.767492 0.814889 0.0132538
225 2 0.959903 0.766072 0.0333468
226 4 0.955148 0.799755 0.0453145
904 4 0.734122 0.827715 0.00852184
181 4 0.932556 0.869377 0.0188516
655 4 0.642759 0.00530597 0.023224
20 3 0.909149 0.0156568 0.0575272
1132 4 0.791227 0.0852777 0.168752
1131 2 0.81437 0.0617884 0.183346
17 3 0.8872 0.00488871 0.105481
151 4 0.923263 0.040291 0.195378
682 4 0.806116 0.0977648 0.0786019
681 2 0.837387 0.0837964 0.0673156
521 4 0.781273 0.123603 0.16032
520 4 0.778112 0.116688 0.0885997
519 2 0.779693 0.120145 0.12446
523 4 0.979355 0.117297 0.149978
736 4 0.995092 0.132743 0.121886
1107 2 0.832099 0.993416 0.437339
522 2 0.964979 0.08854 0.166311
106 4 0.820857 0.160094 0.161712
105 2 0.834067 0.192276 0.171212
107 4 0.847277 0.224458 0.180713
1109 4 0.861821 0.977335 0.449925
1119 2 0.966809 0.257992 0.119537
1276 4 0.90605 0.268286 0.0868919
1275 2 0.889399 0.28251 0.058241
1120 4 0.932104 0.26644 0.114568
156 2 0.532294 0.405111 0.132065
791 4 0.532572 0.335963 0.124412
158 4 0.544758 0.371944 0.125354
382 4 0.79776 0.397217 0.148205
570 2 0.980588 0.399314 0.0824541
571 4 0.992061 0.367929 0.0960085
157 4 0.519829 0.438278 0.138776
489 2 0.739968 0.452496 0.117491
491 4 0.740266 0.480493 0.140217
381 2 0.808562 0.428093 0.133027
383 4 0.819364 0.458969 0.117848
1014 2 0.880726 0.469972 0.113777
1015 4 0.859649 0.441309 0.119658
1016 4 0.901803 0.498636 0.107897
1081 4 0.879684 0.501252 0.165231
1246 4 0.642963 0.550926 0.0829849
1110 2 0.798992 0.526937 0.110833
1112 4 0.797338 0.49102 0.108063
530 4 0.87158 0.55084 0.132898
457 4 0.916962 0.527726 0.124626
456 2 0.946738 0.517356 0.107126
458 4 0.976515 0.506986 0.0896264
942 2 0.554742 0.654149 0.165299
944 4 0.550955 0.641022 0.131926
529 4 0.918158 0.594591 0.166335
528 2 0.894869 0.572716 0.149617
842 4 0.983096 0.603432 0.0803973
709 4 0.565196 0.669012 0.113123
805 4 0.806584 0.671536 0.112801
804 2 0.825765 0.666203 0.142869
1254 2 0.564439 0.823321 0.10936
1255 4 0.542846 0.806474 0.132819
1256 4 0.586032 0.840168 0.0859016
1072 4 0.602758 0.771463 0.166512
1273 4 0.618375 0.806066 0.168305
1436 4 0.754629 0.78339 0.0712305
1435 4 0.797519 0.793472 0.128331
1434 2 0.776074 0.788431 0.0997807
473 4 0.812418 0.807861 0.185178
908 4 0.890223 0.79381 0.146839
836 4 0.887715 0.833732 0.156291
471 2 0.835163 0.817766 0.159007
906 2 0.91402 0.770467 0.160595
1272 2 0.621001 0.841842 0.164618
1314 2 0.812583 0.875091 0.115548
1315 4 0.843375 0.856348 0.116544
472 4 0.857908 0.827671 0.132835
1376 4 0.991465 0.894126 0.141994
599 4 0.50279 0.983559 0.100763
1316 4 0.781792 0.893834 0.114552
385 4 0.987643 0.92916 0.13296
1453 4 0.64342 0.0754778 0.227489
1452 2 0.655163 0.0734822 0.193452
1133 4 0.837513 0.0382976 0.19794
1468 4 0.797152 0.0338188 0.228816