ITEM: TIMESTEP
249500
ITEM: NUMBER OF ATOMS
1520
ITEM: BOX BOUNDS pp pp pp
-6.9326749999999997e+00 6.9326749999999997e+00
-6.9326749999999997e+00 6.9326749999999997e+00
-6.9326749999999997e+00 6.9326749999999997e+00
ITEM: ATOMS id type xs ys zs
329 4 0.0922407 0.0456652 0.070627
327 2 0.0892399 0.0627161 0.0389936
102 2 0.233962 0.039862 0.0228293
1063 4 0.0142943 0.0753695 0.465478
103 4 0.261433 0.0373668 0.0460581
277 4 0.28782 0.0195918 0.0664799
1470 2 0.388238 0.0247374 0.00745033
1472 4 0.422594 0.0212543 0.0178393
328 4 0.086239 0.0797671 0.00736024
564 2 0.307497 0.149528 0.0641709
1089 2 0.013641 0.248213 0.0398462
566 4 0.303243 0.176025 0.0400836
1091 4 0.0292238 0.26066 0.00980193
901 4 0.0299049 0.351989 0.484997
664 4 0.133648 0.299763 0.0815689
1345 4 0.328379 0.482748 0.0793231
827 4 0.42157 0.461585 0.0379961
825 2 0.454656 0.455291 0.0251079
826 4 0.487742 0.448997 0.0122197
407 4 0.108888 0.557643 0.0938861
1263 2 0.498633 0.568096 0.0791995
213 2 0.118195 0.573216 0.0304516
214 4 0.123339 0.575288 0.0660838
1232 4 0.229815 0.588088 0.0127954
1230 2 0.25199 0.612226 0.0278303
1231 4 0.274165 0.636363 0.0428657
905 4 0.267942 0.642684 0.0794755
143 4 0.406612 0.632965 0.0288686
320 4 0.421583 0.678687 0.0725876
319 4 0.480416 0.639825 0.0574193
318 2 0.450999 0.659256 0.0650033
819 2 0.00424289 0.719121 0.00995233
821 4 0.0373994 0.70552 0.013963
1129 4 0.218119 0.761082 0.0828377
1443 2 0.387573 0.683016 0.0210315
1444 4 0.356219 0.699944 0.0154876
1445 4 0.418928 0.666088 0.0265756
1463 4 0.0063137 0.787052 0.0651972
1461 2 0.00388907 0.822796 0.0610923
504 2 0.338668 0.760699 0.0889365
505 4 0.346937 0.750129 0.0554657
306 2 0.0594132 0.920788 0.025849
1462 4 0.00146466 0.858541 0.0569879
1196 4 0.169214 0.897732 0.0616307
308 4 0.093818 0.915625 0.0353395
183 2 0.232848 0.914775 0.0458782
185 4 0.212263 0.885756 0.0399965
307 4 0.0250083 0.925951 0.0163587
881 4 0.0147295 0.979663 0.0554925
1195 4 0.122191 0.935336 0.0219264
1194 2 0.145702 0.916534 0.0417786
701 4 0.00923878 0.854063 0.321448
276 2 0.311736 0.99351 0.0595389
184 4 0.253432 0.943793 0.0517597
278 4 0.335652 0.967428 0.0525977
565 4 0.311752 0.123031 0.0882585
376 4 0.24495 0.168871 0.149783
1116 2 0.280678 0.087008 0.118047
1117 4 0.285002 0.0980687 0.0839977
153 2 0.0137185 0.236091 0.12496
154 4 0.0299445 0.254615 0.151304
663 2 0.110652 0.302461 0.109215
665 4 0.087656 0.305159 0.136861
1146 2 0.247667 0.418689 0.171811
1495 4 0.436953 0.404087 0.182275
1496 4 0.405281 0.346783 0.152029
1494 2 0.421117 0.375435 0.167152
1148 4 0.26477 0.449082 0.180988
1344 2 0.301011 0.494943 0.09939
770 4 0.478293 0.459389 0.189333
129 2 0.0479517 0.511022 0.163006
130 4 0.0444448 0.530865 0.133101
1487 4 0.0293309 0.561139 0.149752
405 2 0.134307 0.544348 0.115738
406 4 0.159727 0.531053 0.137591
481 4 0.184517 0.506826 0.151263
480 2 0.218088 0.495248 0.144991
482 4 0.251659 0.48367 0.138719
1346 4 0.273642 0.507137 0.119457
1264 4 0.495822 0.557744 0.113629
1485 2 0.00684489 0.588401 0.156936
1328 4 0.171394 0.587292 0.145336
141 2 0.419601 0.613038 0.00176513
983 4 0.23243 0.733855 0.100462
981 2 0.265166 0.744624 0.111084
506 4 0.330398 0.77127 0.122407
903 2 0.29096 0.66633 0.0940173
904 4 0.313977 0.689976 0.108559
668 4 0.348324 0.678811 0.106136
666 2 0.383822 0.684879 0.107986
667 4 0.419321 0.690947 0.109836
838 4 0.0173464 0.780307 0.102202
837 2 0.0461191 0.788414 0.122373
839 4 0.0748912 0.796521 0.142543
1130 4 0.163855 0.778768 0.126931
418 4 0.0999489 0.770411 0.138799
417 2 0.128575 0.777999 0.159375
1128 2 0.190987 0.769925 0.104885
982 4 0.297901 0.755393 0.121707
800 4 0.197318 0.905454 0.108692
798 2 0.214378 0.914939 0.139014
1510 4 0.305119 0.876345 0.148257
1509 2 0.318764 0.872696 0.115076
1511 4 0.332408 0.869047 0.0818964
1292 4 0.325792 0.875723 0.177862
1139 4 0.35262 0.972458 0.0846525
1138 4 0.397654 0.925632 0.115973
1137 2 0.375137 0.949045 0.100313
138 2 0.0942452 0.00652637 0.245901
531 2 0.164369 0.00664514 0.215256
533 4 0.191937 0.0138607 0.193157
414 2 0.437733 0.0501316 0.25024
416 4 0.410594 0.0263865 0.250407
375 2 0.226301 0.16468 0.180362
187 4 0.255713 0.143928 0.262108
1118 4 0.276354 0.0759474 0.152097
1229 4 0.473857 0.0969422 0.226627
377 4 0.207652 0.160488 0.210941
1079 4 0.483031 0.182892 0.238317
1097 4 0.0396257 0.252825 0.196568
1095 2 0.0438524 0.259571 0.23174
281 4 0.226316 0.345785 0.167871
279 2 0.24743 0.337398 0.195876
1147 4 0.230565 0.388296 0.162635
1437 2 0.308312 0.383493 0.251155
280 4 0.268544 0.329011 0.223881
1438 4 0.29191 0.352954 0.24122
769 4 0.43144 0.424767 0.146816
1280 4 0.316576 0.519846 0.484726
131 4 0.0514584 0.491179 0.192912
986 4 0.0463854 0.455286 0.185396
217 4 0.14179 0.447821 0.203949
984 2 0.0779005 0.440096 0.194141
985 4 0.109416 0.424907 0.202887
218 4 0.211076 0.442347 0.184681
216 2 0.176433 0.445084 0.194315
724 4 0.332332 0.437964 0.235097
1207 4 0.179149 0.926365 0.475379
768 2 0.454867 0.442078 0.168074
1414 4 0.0255271 0.483252 0.247981
1327 4 0.171739 0.553613 0.20911
1326 2 0.171566 0.570453 0.177223
1498 4 0.358915 0.511675 0.249419
52 4 0.498134 0.614343 0.2521
1411 4 0.207096 0.751602 0.227675
713 4 0.331665 0.747549 0.203416
163 4 0.398634 0.678181 0.181897
162 2 0.370739 0.695185 0.197166
164 4 0.342845 0.71219 0.212435
127 4 0.45711 0.713002 0.196426
1331 4 0.44219 0.737352 0.216584
126 2 0.479183 0.684488 0.196141
1412 4 0.167198 0.807799 0.206421
419 4 0.157201 0.785588 0.179951
1410 2 0.187147 0.7797 0.217048
712 4 0.368516 0.803281 0.230575
711 2 0.350091 0.775415 0.216995
1329 2 0.454511 0.768931 0.204283
1330 4 0.466833 0.80051 0.191982
1069 4 0.00678535 0.909929 0.219959
804 2 0.0428965 0.851466 0.241191
1068 2 0.0369442 0.919267 0.202534
806 4 0.0181502 0.876601 0.233688
1070 4 0.0671031 0.928604 0.185108
1291 4 0.376166 0.835406 0.21009
1290 2 0.350979 0.855565 0.193976
532 4 0.136802 0.99943 0.237355
139 4 0.109432 0.996024 0.214926
799 4 0.231438 0.924423 0.169336
179 4 0.221 0.944921 0.198506
177 2 0.21989 0.919131 0.223685
721 4 0.430767 0.941496 0.195664
720 2 0.462327 0.926768 0.205014
140 4 0.0790589 0.0170288 0.276877
96 2 0.291955 0.0608876 0.294814
98 4 0.302542 0.0699366 0.328077
97 4 0.281367 0.0518388 0.261551
415 4 0.464873 0.0738764 0.250074
1120 4 0.071442 0.253302 0.291476
186 2 0.249706 0.172263 0.28359
188 4 0.2437 0.200597 0.305072
1096 4 0.0480792 0.266317 0.266911
1246 4 0.147926 0.293645 0.317565
1119 2 0.0943014 0.269244 0.314361
1121 4 0.117161 0.285186 0.337246
626 4 0.205583 0.43981 0.302943
624 2 0.188458 0.409722 0.313033
947 4 0.307882 0.34862 0.337682
180 2 0.490632 0.35125 0.288855
182 4 0.474921 0.346106 0.320903
606 2 0.114733 0.470921 0.319846
608 4 0.0940365 0.459484 0.29262
1439 4 0.324714 0.414033 0.261091
723 2 0.333253 0.466342 0.257329
725 4 0.334174 0.494719 0.279562
430 4 0.341055 0.477108 0.314099
1415 4 0.0748135 0.524994 0.280077
1413 2 0.0501704 0.504123 0.264029
1497 2 0.36392 0.540156 0.270965
1499 4 0.368924 0.568635 0.292511
810 2 0.486604 0.571025 0.289259
811 4 0.489893 0.535452 0.294175
812 4 0.483314 0.606598 0.284344
662 4 0.474353 0.604099 0.323623
1041 2 0.0375457 0.695596 0.312274
71 4 0.014646 0.749379 0.27375
1042 4 0.0237783 0.716201 0.286077
1261 4 0.217012 0.728395 0.252736
1262 4 0.287443 0.726526 0.268148
1260 2 0.252227 0.727461 0.260442
107 4 0.419329 0.723304 0.316158
105 2 0.451165 0.70683 0.312228
106 4 0.483002 0.690355 0.308299
805 4 0.0676428 0.826332 0.248694
70 4 0.0715809 0.792442 0.263471
970 4 0.0333982 0.833606 0.34694
69 2 0.0431135 0.77091 0.26861
250 4 0.483472 0.815456 0.288054
644 4 0.447083 0.805745 0.308736
512 4 0.0911279 0.924143 0.319441
178 4 0.218781 0.89334 0.248865
298 4 0.274025 0.834244 0.293107
297 2 0.303393 0.855169 0.293361
643 4 0.405803 0.864885 0.308722
299 4 0.332761 0.876095 0.293615
792 2 0.46879 0.922064 0.292103
793 4 0.493698 0.896656 0.28623
642 2 0.426442 0.835315 0.30873
1353 2 0.153663 0.928449 0.273243
1355 4 0.155562 0.91773 0.307622
1354 4 0.151764 0.939169 0.238864
794 4 0.443883 0.947472 0.297976
991 4 0.0192813 0.0617811 0.370812
990 2 0.0473206 0.0614314 0.393486
859 4 0.111257 0.0766301 0.384432
858 2 0.131534 0.0941414 0.360294
253 4 0.106599 0.0463403 0.407573
1459 4 0.270613 0.0542758 0.396421
860 4 0.151811 0.111653 0.336157
845 4 0.113487 0.181109 0.390777
843 2 0.136638 0.193727 0.366177
245 4 0.266919 0.122086 0.340695
244 4 0.270386 0.108383 0.411418
243 2 0.268653 0.115235 0.376056
782 4 0.014295 0.207487 0.393676
844 4 0.15979 0.206346 0.341576
746 4 0.157191 0.228867 0.418211
1269 2 0.351773 0.166554 0.412802
1271 4 0.371947 0.19266 0.398245
449 4 0.36836 0.229794 0.397324
1245 2 0.168439 0.319943 0.331276
1395 2 0.280513 0.334075 0.423005
447 2 0.348858 0.25591 0.381895
448 4 0.329357 0.282026 0.366467
946 4 0.35678 0.296956 0.349577
599 4 0.00592669 0.384104 0.345169
597 2 0.0188408 0.394918 0.377054
598 4 0.031755 0.405733 0.408939
345 2 0.154053 0.362182 0.397169
625 4 0.171332 0.379633 0.323124
632 4 0.222371 0.394222 0.355904
346 4 0.182024 0.362662 0.374415
630 2 0.238535 0.367469 0.373887
1247 4 0.188953 0.346242 0.344987
1396 4 0.290986 0.352848 0.394051
631 4 0.2547 0.340716 0.391871
945 2 0.332331 0.322788 0.34363
303 2 0.0197416 0.483007 0.412326
607 4 0.13543 0.482357 0.347072
431 4 0.388035 0.432196 0.345363
429 2 0.364545 0.454652 0.329731
305 4 0.0375598 0.512579 0.422736
1013 4 0.0615851 0.532365 0.406073
1011 2 0.0838406 0.551136 0.384796
26 1 0.228192 0.529752 0.366667
27 3 0.217881 0.506996 0.344839
30 3 0.202736 0.548484 0.375606
29 3 0.251772 0.548643 0.352278
1027 4 0.191974 0.474876 0.414492
28 3 0.240826 0.514129 0.393429
1212 2 0.377459 0.556694 0.409554
1214 4 0.369521 0.591183 0.402633
1213 4 0.385397 0.522205 0.416475
1012 4 0.106096 0.569908 0.363519
758 4 0.338925 0.61106 0.388801
756 2 0.357513 0.641203 0.382
660 2 0.489441 0.632837 0.339335
1043 4 0.0513133 0.674991 0.338472
1075 4 0.238192 0.724597 0.425883
757 4 0.376101 0.671347 0.375198
502 4 0.356525 0.70344 0.387642
501 2 0.361539 0.732568 0.408304
969 2 0.0413811 0.799715 0.337551
971 4 0.0493636 0.765825 0.328161
741 2 0.143114 0.966979 0.499596
220 4 0.0882936 0.930129 0.399721
221 4 0.148794 0.894279 0.383715
219 2 0.118544 0.912204 0.391718
1204 4 0.170833 0.869053 0.371141
1203 2 0.190601 0.898441 0.364363
1433 4 0.373998 0.929293 0.405147
1480 4 0.352776 0.914135 0.379205
510 2 0.0701628 0.949011 0.335011
511 4 0.0491978 0.97388 0.35058
1177 4 0.202088 0.960007 0.366355
1205 4 0.21037 0.927829 0.357585
1176 2 0.236546 0.961157 0.376926
1479 2 0.32087 0.926183 0.390922
1481 4 0.288965 0.938231 0.402638
1178 4 0.271003 0.962308 0.387496
992 4 0.0753592 0.0610817 0.41616
252 2 0.113846 0.0205582 0.431722
254 4 0.121094 0.994776 0.455872
1458 2 0.290861 0.0552266 0.426245
1460 4 0.311109 0.0561778 0.45607
600 2 0.338017 0.0099113 0.484663
601 4 0.341236 0.0424967 0.469556
622 4 0.0360478 0.140321 0.491158
621 2 0.0628976 0.158171 0.475006
572 4 0.166373 0.160261 0.480808
1270 4 0.331598 0.140449 0.427359
570 2 0.160749 0.176886 0.449306
623 4 0.0897475 0.17602 0.458854
571 4 0.155126 0.193511 0.417804
1518 2 0.233958 0.214477 0.491929
1519 4 0.206806 0.236806 0.483891
1520 4 0.261109 0.192148 0.499967
744 2 0.157184 0.264891 0.41984
56 4 0.222145 0.261266 0.466693
745 4 0.157177 0.300916 0.421468
54 2 0.232339 0.295339 0.472652
1356 2 0.48605 0.848576 0.193454
1397 4 0.270039 0.315305 0.45196
55 4 0.242537 0.329412 0.47861
394 4 0.282146 0.330371 0.487652
393 2 0.311567 0.311051 0.495516
902 4 0.0224399 0.371454 0.415954
900 2 0.0261723 0.361721 0.450476
347 4 0.126082 0.361703 0.419924
369 2 0.255162 0.366669 0.491565
370 4 0.267086 0.355433 0.459441
304 4 0.00192301 0.453434 0.401916
1312 4 0.32576 0.485336 0.493966
1028 4 0.160041 0.51292 0.466786
1162 4 0.00222478 0.844622 0.49027
1048 4 0.180775 0.582422 0.437976
1026 2 0.176007 0.493898 0.440639
1311 2 0.348607 0.491087 0.466665
1313 4 0.371453 0.496838 0.439363
1047 2 0.162718 0.610395 0.451829
1049 4 0.144661 0.638367 0.465681
1156 4 0.390079 0.601482 0.424839
1357 4 0.470176 0.826008 0.170236
1157 4 0.386395 0.646463 0.481094
1155 2 0.388237 0.623972 0.452966
1074 2 0.221511 0.756526 0.424255
965 4 0.322638 0.702586 0.424383
963 2 0.287335 0.698106 0.430214
964 4 0.252031 0.693626 0.436045
1131 2 0.375175 0.754189 0.489975
1133 4 0.375899 0.740314 0.456698
710 4 0.16601 0.769262 0.482301
708 2 0.134377 0.785423 0.488513
1076 4 0.20483 0.788456 0.422627
312 2 0.247339 0.813126 0.47115
313 4 0.216691 0.803996 0.454484
314 4 0.277987 0.822257 0.487816
503 4 0.366554 0.761695 0.428965
780 2 0.00616517 0.213591 0.359078
722 4 0.493887 0.912039 0.214364
1206 2 0.201576 0.898137 0.474594
1208 4 0.224003 0.869909 0.473809
1431 2 0.388693 0.919747 0.436664
1432 4 0.40339 0.910201 0.468181
1046 4 0.423774 0.878492 0.46658
1044 2 0.443105 0.854075 0.48476
469 4 0.999971 0.389798 0.225823
478 4 0.427361 0.137317 0.500366
1278 2 0.281497 0.525052 0.491265
709 4 0.102744 0.801584 0.494726
743 4 0.117079 0.991289 0.493975
151 4 0.280235 0.75179 0.0083028
1062 2 0.00687384 0.0602245 0.497353
1064 4 0.999453 0.0450807 0.529228
1222 4 0.483341 0.05375 0.547305
1221 2 0.484311 0.0449192 0.582255
479 4 0.429641 0.144622 0.572081
158 4 0.494472 0.696614 0.976959
477 2 0.428501 0.14097 0.536224
958 4 0.323427 0.193709 0.509584
957 2 0.320656 0.229581 0.512016
114 2 0.475534 0.244809 0.553008
395 4 0.340984 0.291732 0.503378
116 4 0.456677 0.267576 0.532357
1281 2 0.0402681 0.394927 0.522601
1282 4 0.0138481 0.374895 0.508419
1283 4 0.0666881 0.414959 0.536782
876 2 0.132108 0.386372 0.544824
877 4 0.165381 0.373262 0.549457
878 4 0.0988347 0.399482 0.540192
272 4 0.234291 0.390335 0.563057
270 2 0.204014 0.384885 0.581873
371 4 0.243238 0.377901 0.52369
92 4 0.172883 0.339264 0.57802
690 2 0.285554 0.412378 0.557539
692 4 0.314681 0.410928 0.578751
691 4 0.256428 0.413828 0.536327
1201 4 0.375799 0.485935 0.542123
855 2 0.145569 0.516655 0.532544
856 4 0.137919 0.503839 0.565372
940 4 0.224812 0.518163 0.522876
939 2 0.234941 0.542396 0.547585
972 2 0.498041 0.269129 0.683768
1392 2 0.494635 0.112479 0.966126
1279 4 0.246418 0.530259 0.497804
227 4 0.462271 0.636005 0.537885
225 2 0.42797 0.635764 0.52676
77 4 0.102064 0.73688 0.557729
1132 4 0.374451 0.768065 0.523252
58 4 0.0934959 0.818727 0.526831
389 4 0.498367 0.781234 0.786506
64 4 0.49272 0.794781 0.583748
57 2 0.0814456 0.852299 0.532136
59 4 0.0693954 0.88587 0.537441
898 4 0.204191 0.908242 0.56647
437 4 0.492746 0.851109 0.539599
897 2 0.233666 0.928592 0.562286
602 4 0.334798 0.977326 0.499771
899 4 0.263142 0.948941 0.558102
854 4 0.2949 0.962177 0.564405
852 2 0.324666 0.959598 0.544214
853 4 0.354433 0.957019 0.524023
122 4 0.0119787 0.0550346 0.609307
815 4 0.255167 0.0588392 0.668231
739 4 0.263742 0.0268415 0.656066
738 2 0.296007 0.0428516 0.654331
740 4 0.328273 0.0588613 0.652597
121 4 0.00450942 0.100058 0.665152
120 2 0.00824407 0.0775465 0.63723
357 2 0.332483 0.122092 0.660234
359 4 0.321045 0.0887534 0.667854
296 4 0.418928 0.150014 0.605548
358 4 0.34392 0.155432 0.652613
212 4 0.499372 0.121717 0.651779
1483 4 0.139358 0.224601 0.678403
1482 2 0.142386 0.25264 0.65593
295 4 0.359722 0.180575 0.633159
294 2 0.389325 0.165294 0.619353
714 2 0.492598 0.185811 0.628087
1420 4 0.424475 0.238388 0.630164
716 4 0.48214 0.159622 0.650564
1484 4 0.145415 0.280679 0.633456
90 2 0.163946 0.305691 0.587687
91 4 0.155009 0.272119 0.597354
673 4 0.378489 0.315974 0.650758
1419 2 0.397189 0.26192 0.631614
1421 4 0.369903 0.285453 0.633063
271 4 0.173736 0.379436 0.600687
125 4 0.319354 0.422937 0.615165
672 2 0.402583 0.339067 0.637097
674 4 0.426677 0.36216 0.623436
123 2 0.291723 0.424487 0.638285
124 4 0.264091 0.426037 0.661405
1202 4 0.383391 0.446639 0.60212
191 4 0.362336 0.482803 0.614594
1053 2 0.395402 0.469166 0.673508
1055 4 0.388493 0.472287 0.638252
1200 2 0.379596 0.466286 0.572121
941 4 0.24507 0.566629 0.572295
302 4 0.306049 0.56851 0.611798
300 2 0.271384 0.577125 0.606842
190 4 0.315655 0.535973 0.628577
189 2 0.338995 0.509388 0.621586
544 4 0.160203 0.59612 0.598084
543 2 0.182466 0.60677 0.624378
545 4 0.204729 0.617418 0.650672
15 3 0.24426 0.656258 0.678523
301 4 0.236719 0.58574 0.601886
1060 4 0.433519 0.656639 0.62334
76 4 0.147977 0.73057 0.61299
75 2 0.12502 0.733725 0.58536
326 4 0.232258 0.742817 0.621344
325 4 0.163702 0.740808 0.643652
324 2 0.19798 0.741812 0.632498
829 4 0.260004 0.725134 0.626635
828 2 0.296044 0.726352 0.62685
830 4 0.332084 0.727569 0.627065
1059 2 0.428004 0.68893 0.638417
1061 4 0.42249 0.72122 0.653493
65 4 0.421455 0.804603 0.588886
63 2 0.457088 0.799692 0.586317
491 4 0.376328 0.974681 0.592758
489 2 0.396289 0.983912 0.621337
490 4 0.41625 0.993144 0.649916
1087 4 0.0737172 0.0272774 0.710253
1086 2 0.10382 0.046245 0.71612
523 4 0.159984 0.0823485 0.740988
1088 4 0.133924 0.0652126 0.721987
813 2 0.221341 0.0688672 0.675692
814 4 0.187516 0.0788955 0.683153
1034 4 0.340067 0.986239 0.760348
471 2 0.104292 0.985939 0.974382
1429 4 0.00220707 0.106297 0.767901
1309 4 0.10583 0.157024 0.69083
998 4 0.37712 0.150416 0.722737
1308 2 0.107517 0.183068 0.715716
1310 4 0.109204 0.209111 0.740601
548 4 0.319933 0.23758 0.718474
997 4 0.334979 0.208882 0.720037
754 4 0.408914 0.184036 0.71034
996 2 0.356049 0.179649 0.721387
753 2 0.440028 0.201051 0.7038
755 4 0.471143 0.218067 0.697261
547 4 0.28237 0.262744 0.662283
546 2 0.301152 0.250162 0.690378
974 4 0.467061 0.253859 0.694134
728 4 0.413279 0.394429 0.723462
726 2 0.381252 0.39903 0.739383
1141 4 0.163374 0.490016 0.690127
1140 2 0.168 0.477851 0.723758
1054 4 0.402311 0.466046 0.708763
615 2 0.0736065 0.552003 0.703306
617 4 0.0570073 0.550449 0.735282
616 4 0.090206 0.553556 0.67133
1405 4 0.158092 0.547118 0.70921
1361 4 0.302841 0.507635 0.711318
1359 2 0.290502 0.52995 0.736817
955 4 0.395154 0.528353 0.745279
1404 2 0.17273 0.577188 0.695721
13 3 0.201049 0.683828 0.696454
11 1 0.220889 0.65737 0.701575
1406 4 0.187367 0.607256 0.68223
12 3 0.20258 0.629754 0.699915
14 3 0.234866 0.659274 0.731922
410 4 0.445315 0.607467 0.761376
408 2 0.434466 0.63817 0.745884
737 4 0.0672117 0.903065 0.685276
1464 2 0.0707867 0.853546 0.723443
1465 4 0.0582787 0.869311 0.693519
206 4 0.280612 0.899688 0.713624
204 2 0.309428 0.881955 0.701152
205 4 0.338245 0.864222 0.688681
949 4 0.404695 0.891214 0.727091
948 2 0.424205 0.866869 0.745175
736 4 0.130099 0.937296 0.676612
735 2 0.0986553 0.92018 0.680944
1427 4 0.158937 0.928413 0.700003
1425 2 0.185348 0.925811 0.724419
1033 4 0.346814 0.942712 0.703238
1032 2 0.34344 0.964475 0.731793
145 4 0.49571 0.984674 0.751927
144 2 0.467067 0.965297 0.741704
146 4 0.438425 0.945919 0.731481
563 4 0.16555 0.996598 0.821446
1502 4 0.308079 0.972532 0.766475
258 2 0.285238 0.065403 0.814636
1500 2 0.280283 0.992134 0.778456
1501 4 0.252487 0.011736 0.790437
259 4 0.279058 0.0324048 0.80147
587 4 0.39265 0.0576329 0.772392
1253 4 0.392529 0.0291956 0.749886
522 2 0.156733 0.112046 0.761184
524 4 0.153481 0.141743 0.781381
671 4 0.154066 0.118292 0.809535
586 4 0.382803 0.125768 0.75089
585 2 0.387727 0.0917002 0.761641
403 4 0.395989 0.133759 0.847577
402 2 0.372168 0.154861 0.830617
696 2 0.154531 0.209121 0.795512
697 4 0.132837 0.217614 0.767988
698 4 0.176226 0.200626 0.823037
404 4 0.348346 0.175963 0.813656
1321 4 0.115794 0.279786 0.833284
1080 2 0.466269 0.32002 0.785401
1082 4 0.489152 0.332884 0.810125
1081 4 0.443386 0.307155 0.760678
765 2 0.212074 0.351091 0.810642
767 4 0.214594 0.383812 0.795695
1333 4 0.319173 0.407753 0.777909
1142 4 0.172627 0.465687 0.757389
1301 4 0.198139 0.476819 0.782443
1299 2 0.224793 0.499177 0.77295
1332 2 0.288804 0.427199 0.778056
1334 4 0.258436 0.446645 0.778203
956 4 0.33821 0.484207 0.748464
727 4 0.349224 0.403631 0.755304
1388 4 0.491917 0.442488 0.782596
161 4 0.491845 0.451215 0.817007
1373 4 0.0338442 0.525362 0.82148
1371 2 0.0657716 0.519755 0.805681
1372 4 0.097699 0.514149 0.789882
1300 4 0.251447 0.521535 0.763458
507 2 0.236255 0.566625 0.812768
509 4 0.255796 0.538274 0.802055
1360 4 0.278162 0.552264 0.762315
954 2 0.366682 0.50628 0.746871
1040 4 0.0544775 0.646734 0.782245
1038 2 0.081553 0.657078 0.803701
834 2 0.196929 0.635255 0.792377
835 4 0.181822 0.603004 0.798039
352 4 0.26419 0.604475 0.825796
508 4 0.216713 0.594976 0.823479
351 2 0.275272 0.636806 0.8373
719 4 0.0412051 0.675491 0.766992
717 2 0.0095462 0.658419 0.764413
836 4 0.212037 0.667506 0.786715
1057 4 0.405394 0.669733 0.762539
1058 4 0.410623 0.726172 0.807135
1056 2 0.408008 0.697953 0.784837
409 4 0.423617 0.668874 0.730393
994 4 0.0209641 0.75799 0.827785
1112 4 0.0579053 0.818312 0.814712
704 4 0.171739 0.779387 0.775548
702 2 0.142236 0.798156 0.766732
703 4 0.112733 0.816924 0.757917
387 2 0.46672 0.766052 0.794775
388 4 0.435072 0.750871 0.803043
1466 4 0.0832947 0.83778 0.753366
1276 4 0.149816 0.862707 0.815756
950 4 0.443715 0.842523 0.76326
89 4 0.46503 0.866989 0.784638
535 4 0.0569057 0.949217 0.770917
536 4 0.0282733 0.947612 0.837093
534 2 0.0425895 0.948414 0.804005
562 4 0.116325 0.944227 0.815462
561 2 0.140937 0.970412 0.818454
1426 4 0.211758 0.92321 0.748834
1251 2 0.397705 0.00180923 0.772769
1252 4 0.40288 0.974423 0.795651
788 4 0.438566 0.978238 0.791712
786 2 0.445947 0.954495 0.817831
762 2 0.239804 0.00453172 0.857168
764 4 0.239623 0.00463006 0.893228
372 2 0.407011 0.0399948 0.843461
374 4 0.385594 0.0116212 0.837405
373 4 0.428428 0.0683683 0.849517
233 4 0.432389 0.0745544 0.885771
669 2 0.141611 0.127759 0.842026
670 4 0.129156 0.137226 0.874517
382 4 0.136152 0.141191 0.910578
1383 2 0.313227 0.0960637 0.895594
260 4 0.291417 0.0984014 0.827802
1385 4 0.313206 0.100174 0.859767
232 4 0.416503 0.144035 0.87474
231 2 0.424446 0.109295 0.880256
86 4 0.10269 0.213878 0.914685
84 2 0.102507 0.234095 0.884824
1241 4 0.167372 0.220374 0.851381
1239 2 0.18911 0.236132 0.875454
459 2 0.301425 0.186074 0.848934
460 4 0.268567 0.172846 0.855696
461 4 0.334284 0.199302 0.842171
582 2 0.00309875 0.0228916 0.70111
1320 2 0.137225 0.298253 0.855646
85 4 0.102324 0.254312 0.854963
1322 4 0.158656 0.31672 0.878009
766 4 0.209554 0.31837 0.825588
1240 4 0.210849 0.251891 0.899527
916 4 0.375661 0.321089 0.901263
1450 4 0.15616 0.319463 0.915063
1449 2 0.158033 0.353717 0.903945
592 4 0.0993785 0.488546 0.92041
591 2 0.125573 0.478716 0.897658
593 4 0.151767 0.468886 0.874907
707 4 0.338333 0.466359 0.906599
159 2 0.476584 0.464525 0.846845
160 4 0.461323 0.477836 0.876684
1114 4 0.162719 0.497578 0.856782
1115 4 0.205679 0.548542 0.884326
1113 2 0.184199 0.52306 0.870554
634 4 0.416387 0.557783 0.862143
635 4 0.448706 0.494669 0.848962
633 2 0.432546 0.526226 0.855552
1007 4 0.042067 0.604705 0.901947
1005 2 0.0352358 0.612642 0.86744
1006 4 0.0284046 0.620579 0.832933
1039 4 0.108628 0.667421 0.825157
789 2 0.222234 0.661875 0.910145
353 4 0.286355 0.669136 0.848805
1503 2 0.344777 0.653096 0.887151
802 4 0.422415 0.585808 0.883391
1504 4 0.375721 0.637348 0.896892
331 4 0.0925793 0.661759 0.856047
330 2 0.10656 0.673193 0.887259
790 4 0.243842 0.687637 0.897112
1505 4 0.313833 0.668844 0.87741
868 4 0.304773 0.750271 0.90036
867 2 0.273381 0.734403 0.908306
1110 2 0.0453186 0.817781 0.848501
636 2 0.0210955 0.889327 0.866451
637 4 0.0105825 0.920848 0.85244
638 4 0.0316085 0.857804 0.880462
49 3 0.0754689 0.903802 0.861935
1111 4 0.0327315 0.817252 0.882291
266 4 0.024355 0.838881 0.915634
1275 2 0.161255 0.85509 0.849096
48 3 0.127841 0.895068 0.875549
1277 4 0.172694 0.847473 0.882435
47 3 0.0974992 0.929707 0.904149
1517 4 0.0836939 0.937132 0.937306
50 3 0.112651 0.942602 0.854134
46 1 0.10344 0.917897 0.87372
977 4 0.25269 0.929404 0.842683
975 2 0.279166 0.921767 0.865944
763 4 0.239984 0.00443338 0.821108
976 4 0.305642 0.914131 0.889206
787 4 0.453327 0.930751 0.843949
472 4 0.103569 0.0155167 0.953766
1471 4 0.353881 0.0282202 0.997061
381 2 0.123014 0.169213 0.929086
1384 4 0.313247 0.0919533 0.93142
641 4 0.346849 0.0940984 0.937783
639 2 0.370724 0.117138 0.951909
640 4 0.3946 0.140177 0.966034
1394 4 0.460763 0.116117 0.954301
383 4 0.109875 0.197235 0.947594
1098 2 0.222311 0.229048 0.962296
1099 4 0.206031 0.237616 0.931281
1100 4 0.238591 0.220481 0.993311
1390 4 0.329884 0.21787 0.908409
1389 2 0.31163 0.212142 0.938977
1391 4 0.293376 0.206414 0.969545
892 4 0.389109 0.166141 0.935562
891 2 0.393587 0.20189 0.937117
893 4 0.398065 0.237638 0.938673
1243 4 0.0105012 0.309119 0.935466
1242 2 0.0297765 0.296414 0.963168
1512 2 0.237844 0.298115 0.925288
1514 4 0.207921 0.283681 0.911266
1513 4 0.267768 0.31255 0.939309
915 2 0.348521 0.325053 0.924675
1451 4 0.159906 0.38797 0.892827
917 4 0.321381 0.329017 0.948087
235 4 0.0723316 0.513199 0.908243
705 2 0.330497 0.480072 0.939017
236 4 0.0971065 0.547635 0.96657
234 2 0.0847188 0.530417 0.937407
706 4 0.322662 0.493786 0.971436
113 4 0.0114756 0.610853 0.921037
39 3 0.152187 0.645926 0.974512
215 4 0.113052 0.571144 0.994819
791 4 0.200626 0.636114 0.923178
156 2 0.485554 0.663382 0.966164
142 4 0.43259 0.59311 0.974661
801 2 0.442167 0.589936 0.913277
157 4 0.476636 0.63015 0.95537
803 4 0.461919 0.594065 0.943165
584 4 0.0259665 0.03287 0.675074
38 3 0.109696 0.67294 0.952852
37 3 0.158038 0.673719 0.928342
332 4 0.120541 0.684628 0.918472
36 1 0.14279 0.673356 0.957804
40 3 0.151257 0.70022 0.974699
869 4 0.241989 0.718535 0.916252
150 2 0.301814 0.731584 0.987651
152 4 0.323393 0.711379 0.967
1223 4 0.485282 0.0360888 0.617205
1307 4 0.500009 0.810845 0.926448
797 4 0.485628 0.83248 0.950886
264 2 0.0413911 0.859568 0.939765
265 4 0.0584277 0.880255 0.963895
795 2 0.476435 0.867281 0.94869
796 4 0.467242 0.902081 0.946493
1515 2 0.054442 0.953715 0.924277
1516 4 0.0251904 0.970299 0.911248
115 4 0.494391 0.222042 0.573659
1267 4 0.495915 0.760673 0.603463
1244 4 0.0490518 0.283708 0.990871
473 4 0.105015 0.95636 0.994998
959 4 0.317885 0.265453 0.514447
226 4 0.393669 0.635523 0.515635
104 4 0.206492 0.0423571 0.999601
857 4 0.153219 0.529471 0.499717
742 4 0.169149 0.942668 0.505217
1045 4 0.462436 0.829658 0.50294
1065 2 0.797141 0.064125 0.0889321
1066 4 0.763941 0.0763833 0.0958514
423 2 0.767119 0.999941 0.0431156
1448 4 0.849831 0.0275645 0.0829728
1037 4 0.917442 0.000356963 0.0697993
999 2 0.575727 0.14917 0.0218348
1001 4 0.590525 0.116655 0.0169125
772 4 0.685312 0.144474 0.102219
1150 4 0.86594 0.133057 0.00665174
1000 4 0.56093 0.181684 0.0267573
169 4 0.639364 0.238981 0.0689672
43 3 0.807879 0.239261 0.0229601
44 3 0.840882 0.252678 0.0646164
1090 4 0.998058 0.235766 0.0698901
659 4 0.609197 0.273112 0.0130074
760 4 0.718249 0.280189 0.0357552
761 4 0.787932 0.263944 0.0267082
41 1 0.829414 0.262073 0.0346141
759 2 0.75309 0.272066 0.0312317
45 3 0.814617 0.291305 0.0369223
1255 4 0.825956 0.313064 0.0077305
42 3 0.854986 0.264398 0.0136054
817 4 0.618691 0.337853 0.0998338
649 4 0.592277 0.327482 0.0767152
925 4 0.981479 0.87974 0.486082
1124 4 0.505278 0.47044 0.169589
363 2 0.812332 0.416227 0.0444716
365 4 0.826659 0.402063 0.0743802
110 4 0.580511 0.462986 0.0258142
108 2 0.585383 0.498676 0.0241157
109 4 0.590256 0.534366 0.0224174
913 4 0.728231 0.440486 0.0762887
364 4 0.798005 0.430391 0.0145629
1348 4 0.874297 0.440865 0.058492
1347 2 0.898971 0.461988 0.0428253
1349 4 0.923644 0.483111 0.0271589
1265 4 0.501443 0.578448 0.0447706
1170 2 0.814937 0.530462 0.0658545
1172 4 0.793016 0.504102 0.0770326
1171 4 0.836859 0.556824 0.0546758
1104 2 0.890309 0.573298 0.0478235
1105 4 0.860105 0.584977 0.0319567
1106 4 0.920512 0.561619 0.0636905
1225 4 0.704613 0.638004 0.049368
1224 2 0.720777 0.645567 0.0180326
924 2 0.961853 0.909913 0.483874
576 2 0.520498 0.740237 0.0165072
1144 4 0.854223 0.858156 0.482005
1381 4 0.676312 0.727912 0.00669399
1380 2 0.699305 0.753271 0.0180364
820 4 0.971087 0.732722 0.00594179
577 4 0.518482 0.772351 0.0327876
350 4 0.542915 0.795491 0.0497963
348 2 0.574562 0.800643 0.0332938
349 4 0.606208 0.805795 0.0167907
682 4 0.744549 0.803773 0.0114815
1382 4 0.722298 0.778631 0.0293781
681 2 0.767113 0.792917 0.0374313
683 4 0.789678 0.78206 0.0633813
889 4 0.897612 0.792204 0.0364556
888 2 0.903882 0.772727 0.00676197
1094 4 0.870201 0.873733 0.0472745
1092 2 0.876303 0.859763 0.0145944
961 4 0.982981 0.881996 0.0771733
960 2 0.985835 0.903954 0.0487109
424 4 0.757166 0.991304 0.00954882
420 2 0.833931 0.937549 0.00462328
422 4 0.834996 0.958136 0.0342114
1446 2 0.854889 0.993351 0.0727681
1447 4 0.859949 0.959135 0.0625635
880 4 0.946083 0.99945 0.0456075
962 4 0.988688 0.925912 0.0202484
879 2 0.980406 0.989557 0.0505498
773 4 0.736492 0.0950889 0.0902499
292 4 0.778283 0.0947475 0.129377
425 4 0.777073 0.00857763 0.0766827
1067 4 0.83034 0.0518677 0.0820131
1035 2 0.922569 0.0333797 0.0833498
1036 4 0.927697 0.0664029 0.0969001
771 2 0.710902 0.119781 0.0962345
293 4 0.776471 0.138024 0.187045
291 2 0.777377 0.116386 0.158211
931 4 0.947445 0.096816 0.107391
930 2 0.932688 0.0917851 0.139908
1436 4 0.579544 0.170239 0.105673
1434 2 0.580581 0.176604 0.141153
168 2 0.61159 0.222554 0.0850652
170 4 0.583816 0.206126 0.101164
155 4 0.997493 0.217566 0.0986166
650 4 0.559827 0.302583 0.136117
648 2 0.576052 0.315032 0.106416
133 4 0.803654 0.3082 0.169208
824 4 0.830236 0.316234 0.194952
816 2 0.648208 0.344158 0.119567
818 4 0.677725 0.350463 0.1393
574 4 0.694436 0.380084 0.134046
573 2 0.706248 0.376987 0.167977
132 2 0.786569 0.333875 0.150518
134 4 0.769484 0.359549 0.131827
1122 2 0.507937 0.498284 0.146828
914 4 0.659434 0.434593 0.0971176
912 2 0.693833 0.437539 0.0867032
785 4 0.844304 0.424788 0.0957432
783 2 0.833784 0.425138 0.130234
1189 4 0.96914 0.506486 0.0934359
1123 4 0.510597 0.526127 0.124067
1190 4 0.938012 0.489113 0.156132
1188 2 0.953576 0.4978 0.124784
1051 4 0.92486 0.521932 0.162216
336 2 0.519378 0.60939 0.143957
338 4 0.536474 0.578714 0.152151
1296 2 0.792157 0.744046 0.112245
1297 4 0.782048 0.712837 0.127218
872 4 0.949583 0.741597 0.15568