ITEM: TIMESTEP
1945500
ITEM: NUMBER OF ATOMS
1520
ITEM: BOX BOUNDS pp pp pp
-6.9326749999999997e+00 6.9326749999999997e+00
-6.9326749999999997e+00 6.9326749999999997e+00
-6.9326749999999997e+00 6.9326749999999997e+00
ITEM: ATOMS id type xs ys zs
1147 4 0.379945 0.0666798 0.0713156
1146 2 0.389887 0.0328893 0.0635817
323 4 0.49657 0.130121 0.0258138
467 4 0.39651 0.913038 0.436141
1282 4 0.413497 0.208919 0.00346377
1281 2 0.412168 0.243507 0.0135801
1300 4 0.47492 0.157262 0.0320496
1299 2 0.454417 0.171437 0.0581093
218 4 0.117092 0.246472 0.0415629
217 4 0.0981737 0.31247 0.0636547
216 2 0.107633 0.279471 0.0526088
704 4 0.352233 0.332141 0.0622098
702 2 0.369684 0.316113 0.0350255
703 4 0.387137 0.300085 0.00784158
1283 4 0.410839 0.278096 0.0236961
1298 4 0.0118219 0.338591 0.0206983
515 4 0.198528 0.402688 0.0607346
513 2 0.232257 0.39028 0.0577591
296 4 0.178619 0.388617 0.0328017
514 4 0.265985 0.377872 0.0547825
308 4 0.293782 0.371702 0.0299695
506 4 0.348175 0.367204 0.0727383
601 4 0.125123 0.497756 0.0214192
780 2 0.309915 0.44993 0.0574453
782 4 0.284327 0.470526 0.0723268
781 4 0.335503 0.429333 0.0425638
1027 4 0.0721696 0.562024 0.0498196
1026 2 0.0385502 0.573391 0.0562147
602 4 0.107182 0.564921 0.0406192
600 2 0.116152 0.531338 0.0310193
1136 4 0.218701 0.533427 0.0869135
336 2 0.50022 0.546709 0.0281369
337 4 0.490952 0.514005 0.0160945
1028 4 0.00493054 0.584759 0.0626099
333 2 0.114305 0.620223 0.0150176
335 4 0.113007 0.612868 0.0502968
1351 4 0.145111 0.625163 0.0661083
859 4 0.502352 0.969595 0.460453
456 2 0.471035 0.618973 0.0390044
457 4 0.438473 0.624584 0.0245588
896 4 0.083002 0.73361 0.0667756
1238 4 0.149558 0.712483 0.0889397
1109 4 0.359004 0.693874 0.0646934
465 2 0.390828 0.944172 0.418856
894 2 0.0738249 0.761729 0.0874027
639 2 0.00810792 0.794445 0.0286978
640 4 0.0315259 0.773595 0.0108871
997 4 0.151181 0.83399 0.0614966
493 4 0.104947 0.891095 0.0240552
910 4 0.385554 0.924989 0.0473524
909 2 0.385856 0.905365 0.0776044
610 4 0.448483 0.8564 0.0451294
609 2 0.453764 0.85926 0.080688
638 4 0.0323229 0.975623 0.0616144
814 4 0.0496549 0.950194 0.0804653
813 2 0.0779655 0.932258 0.0671539
815 4 0.106276 0.914321 0.053842
1148 4 0.39983 0.9991 0.0558493
1167 2 0.11196 0.960308 0.441361
1308 2 0.411452 0.944303 0.00349622
1309 4 0.41352 0.921573 0.0314145
665 4 0.487167 0.949471 0.0838769
1020 2 0.0216793 0.0161716 0.15958
1022 4 0.0361371 0.0491621 0.161317
35 3 0.145162 0.0667419 0.141007
31 1 0.17212 0.0558226 0.156264
34 3 0.174331 0.0225768 0.153147
347 4 0.0668042 0.136401 0.124993
345 2 0.0675927 0.11642 0.155001
33 3 0.199299 0.070353 0.143222
541 4 0.282498 0.143925 0.160877
689 4 0.355663 0.0915522 0.0900931
687 2 0.359719 0.119616 0.112374
688 4 0.363775 0.147679 0.134654
540 2 0.296447 0.166873 0.13681
542 4 0.310395 0.18982 0.112742
1241 4 0.358928 0.181898 0.127734
1239 2 0.391991 0.19434 0.120493
1240 4 0.425055 0.206782 0.113252
1301 4 0.433914 0.185611 0.0841696
454 4 0.473458 0.310104 0.122906
157 4 0.0569027 0.385029 0.123305
156 2 0.039169 0.377276 0.153733
842 4 0.0916227 0.382621 0.105222
840 2 0.113837 0.356974 0.117437
841 4 0.136051 0.331328 0.12965
505 4 0.354625 0.376642 0.14395
143 4 0.282817 0.346439 0.155689
504 2 0.3514 0.371924 0.108344
1332 2 0.238656 0.470703 0.11641
1334 4 0.203959 0.473777 0.125743
1333 4 0.273353 0.467629 0.107077
1134 2 0.205804 0.561625 0.105326
1135 4 0.192908 0.589823 0.123737
1350 2 0.154842 0.654712 0.084345
1168 4 0.111655 0.996271 0.443994
1236 2 0.151038 0.73356 0.118163
1352 4 0.164573 0.684261 0.102582
1107 2 0.338949 0.718539 0.081717
1108 4 0.318893 0.743204 0.0987408
510 2 0.290218 0.736468 0.149701
719 4 0.0330756 0.822059 0.171407
895 4 0.0646478 0.789849 0.108029
713 4 0.0555331 0.842602 0.156329
1237 4 0.152517 0.754637 0.147386
511 4 0.289875 0.752798 0.117551
712 4 0.0622864 0.821904 0.087571
711 2 0.0589098 0.832252 0.121949
698 4 0.030063 0.884764 0.146489
998 4 0.127128 0.892566 0.0960209
996 2 0.139154 0.863278 0.0787583
8 3 0.382795 0.824834 0.11727
911 4 0.386153 0.885744 0.107857
7 3 0.375478 0.874055 0.138767
6 1 0.398297 0.851645 0.12995
9 3 0.418409 0.865183 0.106881
10 3 0.415776 0.843025 0.156388
611 4 0.459051 0.862121 0.116247
328 4 0.451829 0.851829 0.175599
327 2 0.483353 0.851698 0.158089
696 2 0.0170191 0.918282 0.143878
1021 4 0.00722122 0.983182 0.157843
636 2 0.00310716 0.963741 0.0790966
866 4 0.400114 0.98438 0.0909139
865 4 0.384825 0.973666 0.160578
864 2 0.39247 0.979022 0.125746
845 4 0.497903 0.940415 0.153124
646 4 0.0355637 0.0493122 0.193435
645 2 0.0356229 0.0770962 0.216422
32 3 0.170291 0.0634743 0.188495
964 4 0.438779 0.00520285 0.215878
907 4 0.0295171 0.143966 0.256686
346 4 0.0683806 0.0964369 0.18501
906 2 0.016925 0.155051 0.224764
247 4 0.164651 0.076533 0.225431
246 2 0.19963 0.0851543 0.223847
248 4 0.23461 0.0937749 0.222263
755 4 0.492904 0.113781 0.184353
3 3 0.0532273 0.317287 0.223265
158 4 0.021434 0.369523 0.184159
1303 4 0.259468 0.413968 0.233125
142 4 0.27195 0.392668 0.209969
141 2 0.277383 0.369554 0.182829
1047 2 0.351914 0.360488 0.204238
1049 4 0.358712 0.374718 0.236668
1048 4 0.345116 0.346259 0.171808
1006 4 0.49799 0.501951 0.22872
77 4 0.189654 0.542287 0.240326
75 2 0.172311 0.512155 0.2499
1275 2 0.16457 0.573552 0.179089
1277 4 0.187258 0.545583 0.180936
144 2 0.24901 0.547086 0.214774
146 4 0.225936 0.560884 0.190739
145 4 0.272083 0.533287 0.238809
1276 4 0.141882 0.60152 0.177242
255 2 0.129807 0.622299 0.23688
256 4 0.149785 0.619843 0.20696
259 4 0.328578 0.620578 0.172273
258 2 0.354717 0.645414 0.171635
260 4 0.380855 0.670249 0.170997
1163 4 0.0807077 0.731179 0.234734
1161 2 0.10249 0.738918 0.207057
1162 4 0.124272 0.746657 0.179378
512 4 0.290561 0.720138 0.181851
373 4 0.375804 0.68401 0.205671
372 2 0.373424 0.719524 0.19988
350 4 0.404821 0.838928 0.444946
1214 4 0.14555 0.777801 0.173081
1212 2 0.148121 0.811216 0.186397
374 4 0.371044 0.755038 0.194087
1357 4 0.396824 0.784498 0.189316
1356 2 0.402464 0.801165 0.220793
1213 4 0.150692 0.844629 0.199713
965 4 0.37992 0.970134 0.193354
963 2 0.40935 0.987668 0.204616
843 2 0.484323 0.93147 0.18531
844 4 0.470743 0.922524 0.217496
1453 4 0.298834 0.0167737 0.32616
1452 2 0.327929 0.0342567 0.338335
522 2 0.378758 0.0925228 0.297113
523 4 0.367553 0.069828 0.322799
647 4 0.0356823 0.104881 0.23941
1512 2 0.0328914 0.102452 0.311966
1513 4 0.0391825 0.125874 0.285278
524 4 0.389962 0.115218 0.271427
1442 4 0.386853 0.142226 0.2949
1019 4 0.492202 0.133274 0.309069
1225 4 0.0501065 0.831092 0.497064
1324 4 0.0949671 0.208348 0.233553
1323 2 0.0761875 0.21328 0.263941
1325 4 0.0574076 0.218212 0.294329
1440 2 0.371724 0.166133 0.317261
1449 2 0.0152708 0.280075 0.320991
1450 4 0.0381724 0.298906 0.300465
2 3 0.063351 0.300956 0.273953
1 1 0.0428361 0.318899 0.255035
4 3 0.0119439 0.30629 0.257604
292 4 0.378242 0.339147 0.298617
5 3 0.0431055 0.350083 0.265346
999 2 0.169182 0.374891 0.277476
1000 4 0.147895 0.357179 0.254377
1001 4 0.190468 0.392604 0.300575
1302 2 0.242152 0.406475 0.263856
1304 4 0.224835 0.398981 0.294586
291 2 0.374248 0.369143 0.279004
293 4 0.370253 0.399139 0.25939
623 4 0.472645 0.359782 0.235978
76 4 0.154969 0.482022 0.259474
1175 4 0.314864 0.5909 0.308627
1174 4 0.34385 0.52684 0.324683
1173 2 0.329357 0.558871 0.316655
51 2 0.0703535 0.604398 0.323607
52 4 0.0927545 0.619901 0.299979
257 4 0.109829 0.624755 0.266802
286 4 0.228157 0.624638 0.255237
285 2 0.232789 0.65464 0.274704
375 2 0.414137 0.639149 0.327157
376 4 0.413151 0.630533 0.292153
675 2 0.470711 0.621191 0.268675
676 4 0.437011 0.6308 0.260163
287 4 0.237421 0.68464 0.294169
1312 4 0.24233 0.705571 0.321168
79 4 0.396982 0.758228 0.323466
1358 4 0.408105 0.817834 0.25227
78 2 0.42419 0.761074 0.299971
80 4 0.451399 0.76392 0.276476
418 4 0.0167801 0.903956 0.287168
787 4 0.16773 0.902217 0.328047
1158 2 0.486739 0.887075 0.327127
424 4 0.048399 0.069071 0.371226
423 2 0.0680215 0.0425495 0.356665
425 4 0.0876434 0.0160287 0.342104
112 4 0.109332 0.104818 0.327423
1454 4 0.357023 0.0517397 0.35051
1514 4 0.0266 0.0790315 0.338655
1188 2 0.0436146 0.10461 0.397928
111 2 0.142026 0.103072 0.342539
442 4 0.206431 0.121462 0.373246
113 4 0.17472 0.101327 0.357655
1363 4 0.287409 0.114001 0.417146
441 2 0.216855 0.155415 0.367005
443 4 0.227279 0.189369 0.360763
168 2 0.341947 0.217778 0.373383
1441 4 0.356595 0.19004 0.339621
170 4 0.349344 0.224435 0.338722
614 4 0.0620632 0.348112 0.373765
694 4 0.00583741 0.276257 0.397117
693 2 0.032655 0.261218 0.415959
612 2 0.027196 0.355939 0.368924
729 2 0.401333 0.477326 0.400231
730 4 0.399455 0.45289 0.373778
263 4 0.0110704 0.581661 0.344343
482 4 0.39471 0.529708 0.40259
365 4 0.486494 0.546812 0.339649
364 4 0.444226 0.582384 0.386014
363 2 0.46536 0.564598 0.362832
53 4 0.047953 0.588895 0.347235
377 4 0.415123 0.647765 0.36216
1313 4 0.290503 0.702632 0.374762
1311 2 0.266417 0.704102 0.347965
803 4 0.272214 0.671866 0.385626
527 4 0.0780639 0.837834 0.403815
788 4 0.157678 0.833053 0.34585
85 4 0.372637 0.82722 0.322548
525 2 0.0864649 0.866538 0.423963
526 4 0.0948658 0.895241 0.444111
786 2 0.162704 0.867635 0.336948
84 2 0.398469 0.842558 0.342494
86 4 0.424302 0.857895 0.36244
1159 4 0.452016 0.880345 0.334161
1169 4 0.112264 0.924345 0.438728
1465 4 0.241176 0.94947 0.381875
1464 2 0.261922 0.968504 0.359343
1466 4 0.282669 0.987538 0.336812
466 4 0.385146 0.975306 0.40157
1407 2 0.224332 0.0936971 0.497677
1380 2 0.487962 0.0521219 0.476324
1382 4 0.478657 0.0786218 0.453707
380 4 0.0730017 0.163872 0.485275
1189 4 0.0227814 0.115634 0.370634
1190 4 0.0644466 0.0935867 0.42522
349 4 0.432641 0.778347 0.472468
1364 4 0.280447 0.121466 0.488543
1362 2 0.283928 0.117734 0.452845
695 4 0.0594729 0.246178 0.4348
169 4 0.33455 0.211121 0.408044
1037 4 0.407781 0.33278 0.479249
138 2 0.451674 0.276169 0.462186
140 4 0.4356 0.260094 0.434192
139 4 0.467747 0.292244 0.490179
1458 2 0.231756 0.384724 0.447295
1460 4 0.206462 0.360936 0.457033
1459 4 0.257048 0.408511 0.437557
1036 4 0.362872 0.376771 0.4439
1035 2 0.385327 0.354775 0.461575
537 2 0.0357824 0.489753 0.496194
316 4 0.276657 0.495293 0.490117
315 2 0.273473 0.467956 0.466815
317 4 0.270288 0.440621 0.443513
539 4 0.0534537 0.516414 0.479543
71 4 0.014246 0.597886 0.482645
449 4 0.305504 0.513787 0.476016
731 4 0.403213 0.501762 0.426683
480 2 0.388157 0.560425 0.420307
69 2 0.0416427 0.59725 0.459205
70 4 0.0690396 0.596613 0.435765
1123 4 0.0681053 0.630896 0.438844
1122 2 0.097054 0.652108 0.435321
1171 4 0.176803 0.657093 0.465365
1172 4 0.192418 0.591258 0.440396
1170 2 0.184611 0.624176 0.45288
802 4 0.283987 0.649872 0.453297
801 2 0.2781 0.660869 0.419461
1444 4 0.405886 0.615918 0.44748
481 4 0.381604 0.591143 0.438024
1443 2 0.395805 0.6488 0.436636
427 4 0.146824 0.702949 0.439459
426 2 0.145683 0.725603 0.467493
1124 4 0.126003 0.67332 0.431798
1403 4 0.155186 0.667062 0.49153
1445 4 0.385724 0.681681 0.425791
106 4 0.0820078 0.807578 0.425919
107 4 0.0906021 0.792715 0.495969
105 2 0.0863046 0.800146 0.460944
428 4 0.144542 0.748258 0.495526
348 2 0.418731 0.808637 0.458707
1409 4 0.192932 0.0814413 0.484858
294 2 0.17381 0.409339 0.00368316
1032 2 0.00483269 0.0197562 0.502213
1024 4 0.0408535 0.0354875 0.536465
1023 2 0.0540138 0.0485909 0.567374
880 4 0.175249 0.0797985 0.572839
1029 2 0.00459851 0.194726 0.562618
983 4 0.147952 0.995077 0.528592
881 4 0.155173 0.127496 0.522604
879 2 0.165211 0.103647 0.547722
401 4 0.139058 0.130657 0.589874
332 4 0.437011 0.097592 0.585538
330 2 0.422467 0.129805 0.578382
1031 4 0.0352908 0.185586 0.579197
379 4 0.0242696 0.176698 0.536873
175 4 0.267942 0.241829 0.500074
331 4 0.407923 0.162018 0.571227
174 2 0.297282 0.259576 0.511238
176 4 0.326622 0.277323 0.522401
1404 2 0.39513 0.315648 0.540552
1406 4 0.364345 0.296869 0.54032
1405 4 0.425915 0.334428 0.540784
1095 2 0.0578183 0.338304 0.54399
232 4 0.0231697 0.328816 0.51414
809 4 0.0265295 0.365867 0.526806
807 2 0.0151075 0.400026 0.528574
1096 4 0.0565058 0.330724 0.508759
538 4 0.0181116 0.463091 0.512847
566 4 0.0996737 0.529008 0.552483
564 2 0.0658155 0.540275 0.557688
565 4 0.0319576 0.551543 0.562893
371 4 0.112041 0.512458 0.518638
369 2 0.141881 0.502299 0.536152
370 4 0.171722 0.492139 0.553666
1482 2 0.241909 0.582575 0.573916
1483 4 0.20998 0.577984 0.557797
447 2 0.310087 0.538323 0.502043
448 4 0.31467 0.562858 0.528071
816 2 0.0530936 0.703833 0.579744
818 4 0.0409192 0.737586 0.576146
1402 4 0.183955 0.668139 0.557657
1401 2 0.169571 0.6676 0.524593
83 4 0.0104532 0.755563 0.575495
1226 4 0.015595 0.849456 0.557673
1224 2 0.0328503 0.840274 0.527368
1129 4 0.486735 0.845475 0.521511
652 4 0.47039 0.880733 0.539521
651 2 0.455919 0.913496 0.54372
607 4 0.0483005 0.98607 0.507228
1033 4 0.0389686 0.0160858 0.513242
606 2 0.0830026 0.995447 0.510094
608 4 0.117705 0.00482291 0.512961
981 2 0.183612 0.995486 0.53394
982 4 0.219272 0.995895 0.539289
653 4 0.441448 0.946258 0.54792
1025 4 0.067174 0.0616963 0.598284
509 4 0.412677 0.997732 0.638851
278 4 0.497617 0.0304093 0.615661
508 4 0.463921 0.0409699 0.612278
507 2 0.438299 0.0193515 0.625565
399 2 0.138154 0.166706 0.589682
27 3 0.231677 0.165218 0.635473
29 3 0.272815 0.130262 0.630574
28 3 0.276372 0.172562 0.665252
26 1 0.264727 0.162345 0.635588
155 4 0.320896 0.0965201 0.626457
153 2 0.350068 0.099023 0.647508
59 4 0.434231 0.154935 0.643698
57 2 0.456489 0.134668 0.663553
400 4 0.13725 0.202756 0.58949
30 3 0.277288 0.180948 0.611608
985 4 0.298438 0.18763 0.638666
984 2 0.329436 0.200684 0.62566
986 4 0.360433 0.21374 0.612655
1414 4 0.496707 0.190935 0.591737
1413 2 0.461552 0.192733 0.599565
1415 4 0.426396 0.194533 0.607391
917 4 0.052277 0.329183 0.611146
915 2 0.0301714 0.307738 0.629904
916 4 0.00806533 0.286293 0.648662
368 4 0.309972 0.296364 0.645009
1097 4 0.0591317 0.345884 0.579221
563 4 0.146724 0.373351 0.653252
561 2 0.111281 0.379959 0.652492
799 4 0.183588 0.377256 0.645299
798 2 0.218881 0.377441 0.637899
800 4 0.254174 0.377625 0.630499
581 4 0.328646 0.42748 0.580863
579 2 0.340103 0.445941 0.609644
580 4 0.35156 0.464401 0.638426
1243 4 0.0886264 0.576559 0.621247
1369 4 0.0769584 0.543283 0.640113
1244 4 0.063754 0.643478 0.611014
1242 2 0.0761905 0.610019 0.61613
1484 4 0.27384 0.587166 0.590035
1262 4 0.292241 0.608014 0.614267
1260 2 0.325034 0.615212 0.627429
1261 4 0.357826 0.622411 0.640591
352 4 0.0651625 0.678344 0.625826
817 4 0.0652676 0.670079 0.58334
351 2 0.0794764 0.694813 0.654532
353 4 0.09379 0.711284 0.683241
1066 4 0.235093 0.732459 0.626779
383 4 0.221891 0.703431 0.639164
381 2 0.195977 0.696036 0.663125
922 4 0.104211 0.836315 0.655568
923 4 0.159332 0.80858 0.618232
921 2 0.131772 0.822448 0.636901
1067 4 0.206576 0.797873 0.616324
1065 2 0.220834 0.765166 0.621551
1050 2 0.445972 0.834949 0.639951
1051 4 0.450229 0.858577 0.613044
223 4 0.1933 0.0693085 0.691905
192 2 0.162876 0.00135252 0.733755
440 4 0.274089 0.0707528 0.73287
224 4 0.14561 0.111387 0.657896
1339 4 0.132026 0.138651 0.738697
1338 2 0.156626 0.164491 0.733451
222 2 0.169455 0.0903482 0.674901
439 4 0.245153 0.134712 0.716332
1340 4 0.181226 0.190332 0.728205
438 2 0.259621 0.102732 0.724601
154 4 0.37924 0.101526 0.668559
1294 4 0.381504 0.0935292 0.708031
58 4 0.478749 0.114401 0.683406
1293 2 0.399759 0.0974862 0.738878
1423 4 0.200961 0.26193 0.659674
1422 2 0.213077 0.228597 0.653143
1424 4 0.225192 0.195266 0.646612
1081 4 0.366603 0.196128 0.748465
1080 2 0.337617 0.217494 0.746529
1373 4 0.489578 0.221075 0.721488
1371 2 0.50616 0.189511 0.716095
752 4 0.0149325 0.297494 0.683078
366 2 0.315411 0.266527 0.664518
367 4 0.320851 0.23669 0.684026
521 4 0.390992 0.275303 0.73647
519 2 0.375117 0.307247 0.741762
562 4 0.0758384 0.386566 0.651731
520 4 0.359243 0.339191 0.747055
476 4 0.149508 0.44557 0.701286
474 2 0.138527 0.477819 0.713112
1116 2 0.445725 0.464844 0.745952
1117 4 0.426427 0.436573 0.734602
1368 2 0.0989153 0.534187 0.667234
1370 4 0.120871 0.52509 0.694356
475 4 0.127546 0.510067 0.724939
13 3 0.11098 0.542679 0.723225
15 3 0.146552 0.568053 0.755468
11 1 0.123756 0.544445 0.754104
12 3 0.137737 0.515309 0.761608
451 4 0.0621946 0.638737 0.730956
450 2 0.0861546 0.618949 0.71266
794 4 0.129523 0.601299 0.726486
452 4 0.110115 0.599161 0.694363
793 4 0.198814 0.612792 0.710107
792 2 0.164169 0.607046 0.718296
1141 4 0.232335 0.598677 0.710357
1140 2 0.24982 0.607693 0.74058
783 2 0.477073 0.662056 0.72194
785 4 0.491721 0.674678 0.691501
1072 4 0.0924818 0.737064 0.711149
1071 2 0.103103 0.70858 0.730548
382 4 0.170063 0.688641 0.687086
160 4 0.418902 0.832738 0.686523
1052 4 0.441714 0.811321 0.666857
73 4 0.131314 0.887239 0.747951
159 2 0.426267 0.856709 0.712437
161 4 0.433635 0.880686 0.738357
1258 4 0.446578 0.919155 0.739904
194 4 0.193362 0.982257 0.736278
1470 2 0.31942 0.965434 0.716532
1471 4 0.300235 0.991749 0.701045
1472 4 0.338606 0.939119 0.732019
271 4 0.340833 0.903162 0.733662
270 2 0.375184 0.906103 0.744233
1259 4 0.464853 0.945666 0.675351
272 4 0.409548 0.909046 0.754811
1257 2 0.455719 0.932411 0.707621
177 2 0.0109622 0.0942711 0.81268
326 4 0.103064 0.982147 0.806769
193 4 0.13239 0.0204474 0.731231
485 4 0.163671 0.0216311 0.826925
993 2 0.305073 0.0223062 0.817131
995 4 0.30247 0.00600339 0.785071
826 4 0.427365 0.00900437 0.774076
1266 2 0.474264 0.0345552 0.806207
1268 4 0.444617 0.0379776 0.785965
179 4 0.0358357 0.118792 0.803709
54 2 0.135969 0.105667 0.795968
55 4 0.124589 0.113832 0.762738
56 4 0.147349 0.0975012 0.829198
1295 4 0.418014 0.101443 0.769724
661 4 0.205652 0.183743 0.813237
1195 4 0.230637 0.211487 0.81789
660 2 0.175253 0.197178 0.827228
1082 4 0.308631 0.238859 0.744593
1194 2 0.253857 0.237436 0.80851
944 4 0.379079 0.253216 0.8058
943 4 0.447618 0.243493 0.78556
942 2 0.413349 0.248355 0.79568
968 4 0.150023 0.301201 0.777971
1196 4 0.277076 0.263385 0.79913
94 4 0.31132 0.285966 0.780262
93 2 0.296364 0.31868 0.777709
966 2 0.135289 0.333233 0.785539
967 4 0.120553 0.365265 0.793106
204 2 0.0733857 0.376387 0.830624
205 4 0.0895161 0.385903 0.799807
95 4 0.281407 0.351394 0.775156
251 4 0.121193 0.408592 0.803274
249 2 0.141758 0.430677 0.82302
250 4 0.162322 0.452761 0.842765
1118 4 0.465022 0.493114 0.757302
14 3 0.0994245 0.550777 0.776191
1486 4 0.104865 0.515052 0.814716
1485 2 0.140364 0.512459 0.820515
188 4 0.20147 0.532733 0.845261
1475 4 0.451893 0.521181 0.775741
1474 4 0.415332 0.580248 0.756351
1473 2 0.433613 0.550715 0.766046
715 4 0.0409979 0.624718 0.82389
714 2 0.00897782 0.638785 0.815101
1289 4 0.218359 0.630695 0.848419
1142 4 0.267306 0.616709 0.770801
265 4 0.32494 0.630854 0.820872
952 4 0.315502 0.608588 0.789867
953 4 0.377269 0.578092 0.7685
951 2 0.346385 0.59334 0.779183
784 4 0.462425 0.649435 0.752378
745 4 0.457627 0.628862 0.780585
744 2 0.453585 0.626552 0.816344
1073 4 0.113725 0.680098 0.749947
431 4 0.136757 0.684824 0.777897
429 2 0.138532 0.714861 0.797772
430 4 0.140306 0.744899 0.817647
1291 4 0.245898 0.69648 0.81961
1290 2 0.262597 0.724621 0.804458
1059 2 0.0164245 0.798588 0.808596
242 4 0.133366 0.844813 0.836449
1041 2 0.107144 0.773639 0.837691
1042 4 0.101196 0.741905 0.821632
1292 4 0.279297 0.752763 0.789305
1496 4 0.36319 0.798148 0.818292
1494 2 0.35447 0.783334 0.786592
1495 4 0.345751 0.76852 0.754891
1315 4 0.462317 0.811649 0.820829
121 4 0.0284007 0.903713 0.811667
1061 4 0.0468573 0.816846 0.802201
72 2 0.160937 0.901177 0.763071
1438 4 0.101927 0.891835 0.767502
241 4 0.179358 0.899796 0.844396
240 2 0.156362 0.872305 0.840423
74 4 0.19056 0.915116 0.778191
668 4 0.474567 0.834109 0.788584
666 2 0.45896 0.865802 0.781346
667 4 0.443345 0.897515 0.774103
324 2 0.0743692 0.991296 0.786938
1439 4 0.0603397 0.920844 0.818792
325 4 0.0456738 0.000444741 0.767107
120 2 0.999471 0.920648 0.82496
1437 2 0.0811342 0.90634 0.793147
833 4 0.218882 0.945546 0.788925
831 2 0.245874 0.924779 0.800782
832 4 0.272866 0.904011 0.812637
828 2 0.390758 0.917796 0.824269
830 4 0.411266 0.910249 0.795567
680 4 0.471554 0.926615 0.771919
116 4 0.449624 0.921084 0.806551
825 2 0.429831 0.973029 0.773779
827 4 0.432297 0.937033 0.773482
483 2 0.165461 0.021405 0.862941
484 4 0.167251 0.0211785 0.898958
994 4 0.307675 0.03861 0.849191
767 4 0.43637 0.00678686 0.89837
924 2 0.165166 0.115692 0.869097
925 4 0.161827 0.102641 0.902547
926 4 0.168503 0.128744 0.835646
1143 2 0.429088 0.142217 0.873007
1144 4 0.405658 0.162434 0.854494
1145 4 0.452518 0.121999 0.891519
662 4 0.144854 0.210613 0.84122
790 4 0.168602 0.22519 0.864527
344 4 0.374075 0.220568 0.906152
342 2 0.364542 0.194593 0.883026
1252 4 0.00440882 0.321986 0.920748
791 4 0.18259 0.270452 0.918909
789 2 0.175596 0.247821 0.891718
533 4 0.413531 0.301806 0.909124
206 4 0.0572562 0.366872 0.861442
394 4 0.380437 0.36522 0.864503
393 2 0.395931 0.397543 0.86845
395 4 0.411425 0.429866 0.872396
686 4 0.483614 0.489285 0.842457
1487 4 0.175862 0.509867 0.826315
186 2 0.196385 0.568399 0.843676
189 2 0.277371 0.542111 0.867395
190 4 0.284011 0.526083 0.899008
191 4 0.270731 0.55814 0.835782
685 4 0.433259 0.540829 0.839415
684 2 0.458437 0.515057 0.840936
1287 2 0.214541 0.666124 0.842882
187 4 0.191301 0.604065 0.842091
264 2 0.300036 0.610866 0.837626
266 4 0.275132 0.590878 0.854381
746 4 0.449543 0.624243 0.852103
40 3 0.0203218 0.683029 0.884718
1420 4 0.122413 0.730594 0.879729
1419 2 0.125968 0.721419 0.914422
1288 4 0.210723 0.701552 0.837345
208 4 0.479481 0.705271 0.918429
1091 4 0.451223 0.683208 0.92433
1043 4 0.113092 0.805374 0.853751
1127 4 0.383244 0.838175 0.908257
1314 2 0.470325 0.817267 0.855539
1375 4 0.115498 0.838475 0.862562
1374 2 0.121934 0.843383 0.897703
1125 2 0.380746 0.864699 0.883955
1126 4 0.378248 0.891224 0.859651
1316 4 0.478334 0.822885 0.890248
398 4 0.179492 0.993893 0.931849
829 4 0.370259 0.925342 0.852961
114 2 0.468678 0.932876 0.834823
626 4 0.493367 0.960685 0.893646
115 4 0.487728 0.944665 0.863081
396 2 0.210536 0.0113976 0.937346
397 4 0.24158 0.0289038 0.942844
152 4 0.264174 0.00633469 0.936261
356 4 0.487958 0.0793366 0.959593
765 2 0.420175 0.982839 0.919926
1216 4 0.0642275 0.139375 0.913841
584 4 0.295258 0.172083 0.914873
413 4 0.403412 0.138095 0.963179
411 2 0.371264 0.142229 0.978985
269 4 0.406856 0.0562699 0.919223
267 2 0.430756 0.0797661 0.93253
268 4 0.454657 0.103262 0.945838
1215 2 0.0696384 0.172336 0.927431
1286 4 0.112323 0.214171 0.947658
1217 4 0.07505 0.205297 0.941022
1284 2 0.111251 0.242293 0.970206
583 4 0.310991 0.172413 0.985258
582 2 0.303124 0.172248 0.950066
412 4 0.339116 0.146363 0.994792
343 4 0.355009 0.168617 0.8599
1297 4 0.0162304 0.328425 0.949433
1285 4 0.110179 0.270415 0.992755
532 4 0.464285 0.286561 0.958045
531 2 0.438908 0.294183 0.933584
1296 2 0.0140258 0.333508 0.985066
1381 4 0.497266 0.0256219 0.498942
306 2 0.307634 0.369577 0.996742
307 4 0.321486 0.367453 0.963515
196 4 0.0190352 0.469189 0.97205
195 2 0.0247192 0.503561 0.962739
766 4 0.403982 0.958892 0.941483
295 4 0.169001 0.430061 0.974565
359 4 0.140423 0.506201 0.989322
357 2 0.148745 0.497882 0.955234
358 4 0.157066 0.489564 0.921146
806 4 0.471964 0.490358 0.992553
804 2 0.475304 0.455719 0.983096
805 4 0.478645 0.42108 0.973639
197 4 0.0304027 0.537934 0.953429
334 4 0.115604 0.627579 0.979738
200 4 0.136649 0.598688 0.970991
198 2 0.165354 0.616216 0.957982
254 4 0.22414 0.617406 0.935093
252 2 0.245679 0.628597 0.961762
199 4 0.194058 0.633745 0.944974
253 4 0.267219 0.639788 0.988431
1310 4 0.409385 0.967034 0.975577
1421 4 0.129522 0.712244 0.949115
869 4 0.153781 0.68654 0.945137
867 2 0.18708 0.693248 0.957245
868 4 0.220378 0.699958 0.969355
172 4 0.289987 0.725717 0.974542
173 4 0.30823 0.700279 0.909567
171 2 0.299109 0.712998 0.942054
824 4 0.389845 0.746304 0.957535
1090 4 0.388084 0.709726 0.946954
1089 2 0.419654 0.696467 0.935642
1492 4 0.0138898 0.757985 0.984005
823 4 0.394809 0.807012 0.918915
822 2 0.392327 0.776658 0.938225
1376 4 0.12837 0.848292 0.932843
494 4 0.124227 0.871766 0.9573
492 2 0.114588 0.88143 0.990678
503 4 0.314276 0.900489 0.99098
134 4 0.129159 0.89964 0.93401
132 2 0.147533 0.93039 0.929867
133 4 0.165908 0.961141 0.925724
151 4 0.315393 0.959733 0.916102
501 2 0.326862 0.926072 0.968899
150 2 0.289783 0.983033 0.926181
502 4 0.339446 0.951654 0.946817
378 2 0.0486365 0.170285 0.511073
1408 4 0.255731 0.105952 0.510496
1264 4 0.558208 0.0327595 0.0878572
654 2 0.713186 0.00593291 0.0404081
655 4 0.725255 0.0276425 0.0142653
1391 4 0.555907 0.129805 0.0673133
742 4 0.939191 0.159824 0.00870181
1462 4 0.973517 0.170456 0.0764525
1507 4 0.673381 0.178324 0.0226084
1506 2 0.695576 0.201706 0.00644973
743 4 0.924745 0.225252 0.0353883
741 2 0.931968 0.192538 0.0220454
88 4 0.93427 0.252149 0.00985532
1455 2 0.814651 0.295864 0.996298
1457 4 0.836694 0.269064 0.00610902
949 4 0.889883 0.274051 0.0472506
948 2 0.897935 0.251459 0.0741785
227 4 0.934115 0.318745 0.0862354
225 2 0.943746 0.34102 0.0595623
1319 4 0.655196 0.37482 0.0275243
1318 4 0.710003 0.401767 0.0658881
1317 2 0.6826 0.388294 0.0467065
226 4 0.953377 0.363296 0.0328887
487 4 0.510316 0.443911 0.067664
486 2 0.543883 0.457078 0.0671548
488 4 0.577451 0.470245 0.0666461
25 3 0.664794 0.479696 0.0742059
279 2 0.658061 0.501266 0.0211924
22 3 0.698677 0.437999 0.0709391
1306 4 0.742975 0.473017 0.0410859
1305 2 0.766562 0.500026 0.0449022
1184 4 0.986577 0.427315 0.0719445
1182 2 0.97325 0.441448 0.0415631
1183 4 0.959924 0.45558 0.01118
338 4 0.509487 0.579412 0.0401787
281 4 0.682911 0.485876 0.0423118
1307 4 0.790149 0.527034 0.0487195
980 4 0.851791 0.532785 0.0118514
1451 4 0.992369 0.261243 0.341516
1245 2 0.571035 0.74222 0.0426649
1247 4 0.561642 0.73627 0.0769698
1246 4 0.580427 0.748169 0.00836036
1197 2 0.64667 0.727359 0.0172751
1198 4 0.636502 0.697619 0.999595
517 4 0.701975 0.687923 0.0669381
892 4 0.799 0.676302 0.0802449
891 2 0.823312 0.682457 0.0543317
1519 4 0.832817 0.743397 0.0838977
1114 4 0.860775 0.723184 0.00210241
893 4 0.847624 0.688613 0.0284176
1199 4 0.656838 0.757099 0.0349549
1113 2 0.861085 0.758793 0.00778847
664 4 0.519334 0.889357 0.0603553
473 4 0.548352 0.863894 0.0113062
433 4 0.721538 0.901128 0.0798475
410 4 0.792069 0.896369 0.0181065
408 2 0.815214 0.88003 0.0404185
409 4 0.838358 0.863693 0.0627302
934 4 0.575274 0.930659 0.0679331
1010 4 0.66763 0.945627 0.0104148
1504 4 0.739253 0.975758 0.0810915
432 2 0.705732 0.927867 0.0615275
656 4 0.701118 0.984223 0.0665506
434 4 0.689925 0.954607 0.0432084
1263 2 0.548399 0.0646408 0.10156
935 4 0.552457 0.995313 0.0903117
913 4 0.742178 0.0878567 0.086967
587 4 0.880007 0.0649536 0.17643
1265 4 0.53859 0.0965218 0.115264
753 2 0.501534 0.115543 0.149384
754 4 0.510162 0.117306 0.114415
1390 4 0.605455 0.150609 0.115416
1389 2 0.580681 0.140207 0.0913648
1330 4 0.617766 0.116649 0.145867
912 2 0.763078 0.100339 0.113571
914 4 0.783981 0.112821 0.140176
1461 2 0.94549 0.157603 0.0951522
1463 4 0.917464 0.144749 0.113851
529 4 0.826817 0.152168 0.161101
528 2 0.860614 0.164541 0.163349
530 4 0.894412 0.176913 0.165596
950 4 0.905989 0.228866 0.101107
45 3 0.984033 0.230455 0.134174
453 2 0.504919 0.294346 0.115013
455 4 0.536378 0.278587 0.107119
836 4 0.565316 0.296146 0.123003
834 2 0.586738 0.325064 0.125292
988 4 0.828673 0.283189 0.107893
989 4 0.867927 0.340494 0.127314
987 2 0.8483 0.311841 0.117604
44 3 0.942364 0.247903 0.104039
41 1 0.965452 0.256486 0.126693
43 3 0.950581 0.26821 0.154284
42 3 0.984672 0.28032 0.113917
617 4 0.576798 0.398612 0.118279
615 2 0.553168 0.417005 0.138372
835 4 0.608161 0.35398 0.127581
616 4 0.529538 0.435398 0.158466
23 3 0.658356 0.437016 0.107156
21 1 0.680508 0.456628 0.0915197
24 3 0.70083 0.471003 0.113888
961 4 0.652666 0.411498 0.127786
960 2 0.651967 0.417241 0.16338
862 4 0.767125 0.416145 0.118927
861 2 0.793478 0.430006 0.139268
863 4 0.819832 0.443867 0.15961
1132 4 0.577203 0.566391 0.128663
1131 2 0.541535 0.563261 0.12437
1481 4 0.603155 0.576555 0.148956
239 4 0.659476 0.568577 0.100415
1480 4 0.614976 0.506564 0.161732
1479 2 0.609065 0.541561 0.155345
237 2 0.685042 0.574673 0.125106
275 4 0.732427 0.570524 0.126204
274 4 0.780982 0.533402 0.0879138
273 2 0.756704 0.551963 0.107059
1016 4 0.94394 0.564805 0.137973
238 4 0.710607 0.580769 0.149797
937 4 0.83068 0.644725 0.15173
1038 2 0.574322 0.716661 0.116337
1040 4 0.602398 0.730763 0.134039
1039 4 0.546248 0.702561 0.0986346
516 2 0.719747 0.699593 0.0960648
518 4 0.737519 0.711262 0.125192
147 2 0.948702 0.754625 0.112915
149 4 0.982668 0.742944 0.116121
1387 4 0.771619 0.774507 0.143031
1386 2 0.760052 0.799299 0.166526
1518 2 0.863843 0.740452 0.102041
1520 4 0.894868 0.737507 0.120184
148 4 0.914736 0.766306 0.109707
717 2 0.998305 0.82814 0.164028
596 4 0.535676 0.890025 0.170599
940 4 0.542568 0.912156 0.134582
329 4 0.514878 0.851566 0.140579
776 4 0.750211 0.875274 0.155957
462 2 0.823899 0.886194 0.1537
463 4 0.814804 0.898011 0.120866
718 4 0.963535 0.834219 0.156649
933 2 0.563865 0.962986 0.0791222
939 2 0.557751 0.937831 0.154847
1149 2 0.70574 0.987358 0.14481
1150 4 0.715326 0.970081 0.114643
620 4 0.833517 0.928437 0.116111
1503 2 0.77357 0.982956 0.0895177
1505 4 0.807887 0.990153 0.0979438
618 2 0.858107 0.954639 0.113082
619 4 0.882697 0.98084 0.110053
697 4 0.00397522 0.951799 0.141267
637 4 0.973892 0.951857 0.0965796
690 2 0.950832 0.961136 0.153295
692 4 0.94839 0.940478 0.123838
975 2 0.536091 0.0580944 0.20277
977 4 0.55787 0.0295123 0.205797
1331 4 0.628202 0.0708422 0.200589
1210 4 0.69686 0.0385928 0.172521
1209 2 0.706854 0.0469739 0.20614
1211 4 0.71685 0.0553556 0.239759
585 2 0.90355 0.0379326 0.172431
586 4 0.927094 0.0109115 0.168432
976 4 0.514312 0.0866763 0.199742
1329 2 0.622984 0.0937457 0.173228
534 2 0.748597 0.160225 0.219026
535 4 0.748233 0.129452 0.20023
635 4 0.929655 0.175002 0.168947
1274 4 0.595296 0.199649 0.223246
1272 2 0.62804 0.190554 0.211182
536 4 0.74896 0.190999 0.237821
1273 4 0.660784 0.181459 0.199118