ITEM: TIMESTEP
1365500
ITEM: NUMBER OF ATOMS
1520
ITEM: BOX BOUNDS pp pp pp
-6.9326749999999997e+00 6.9326749999999997e+00
-6.9326749999999997e+00 6.9326749999999997e+00
-6.9326749999999997e+00 6.9326749999999997e+00
ITEM: ATOMS id type xs ys zs
215 4 0.338114 0.0599663 0.045235
629 4 0.408452 0.0489989 0.0437117
331 4 0.384423 0.0317459 0.0631652
627 2 0.425354 0.0294114 0.0185904
213 2 0.346023 0.0882158 0.0242626
1056 2 0.00599658 0.32694 0.163182
214 4 0.353933 0.116465 0.00329015
687 2 0.490447 0.155056 0.0122782
472 4 0.493478 0.0820464 0.0365318
689 4 0.489247 0.146486 0.0472858
286 4 0.0126675 0.164419 0.0267464
877 4 0.307503 0.225199 0.998566
87 2 0.353448 0.229218 0.0390739
88 4 0.383014 0.213632 0.0526151
941 4 0.9995 0.293924 0.0196172
939 2 0.0340804 0.298908 0.0285493
940 4 0.0686608 0.303892 0.037481
713 4 0.106247 0.308507 0.0350553
711 2 0.131403 0.299508 0.0592749
712 4 0.156559 0.290509 0.0834945
89 4 0.323882 0.244803 0.0255324
852 2 0.489969 0.267674 0.0336453
853 4 0.483148 0.294935 0.0562449
1100 4 0.47536 0.329922 0.0582277
924 2 0.164456 0.402391 0.0608055
1199 4 0.281902 0.369445 0.02212
1197 2 0.277896 0.344163 0.99672
617 4 0.010311 0.465631 0.0579403
925 4 0.135516 0.408598 0.0402068
1112 4 0.482514 0.483514 0.0435106
1110 2 0.464859 0.462516 0.0669145
1111 4 0.447203 0.441517 0.090319
1511 4 0.48841 0.503877 0.00976352
245 4 0.171619 0.577123 0.00276123
281 4 0.1787 0.541245 0.00078934
243 2 0.205655 0.575258 0.0145289
937 4 0.271059 0.588676 0.0361629
435 2 0.011032 0.647582 0.0749578
436 4 0.0447201 0.634724 0.0745057
244 4 0.23969 0.573394 0.0262969
938 4 0.247565 0.625958 0.093256
936 2 0.259313 0.607317 0.0647098
339 2 0.351792 0.94832 0.483423
867 2 0.502159 0.610537 0.0143921
1372 4 0.0748503 0.731422 0.999892
99 2 0.22406 0.671884 0.0953849
101 4 0.207537 0.694413 0.0725841
961 4 0.302458 0.672921 0.994838
49 3 0.145085 0.811478 0.0444489
778 4 0.175387 0.829483 0.0648028
777 2 0.192943 0.800352 0.0767844
779 4 0.210497 0.77122 0.0887656
48 3 0.11158 0.853873 0.0352546
50 3 0.126348 0.841099 0.0859254
46 1 0.13621 0.842103 0.0546112
1325 4 0.114083 0.890483 0.0402918
47 3 0.16243 0.862269 0.0520534
1323 2 0.121426 0.911946 0.012259
57 2 0.0677261 0.947015 0.062274
58 4 0.0631003 0.938402 0.0275629
1204 4 0.261998 0.966029 0.0544673
1203 2 0.274017 0.977626 0.0864272
1049 4 0.0345702 0.0384334 0.109394
1047 2 0.0288833 0.0704983 0.0939058
488 4 0.036484 0.0104007 0.132025
332 4 0.360406 0.0672935 0.12114
330 2 0.372415 0.0495198 0.0921525
1030 4 0.459641 0.0059035 0.134357
1029 2 0.490131 0.99722 0.151544
904 4 0.382942 0.980518 0.445304
1048 4 0.0231955 0.102564 0.0784184
1377 2 0.119512 0.63801 0.489346
843 2 0.268845 0.114762 0.176034
845 4 0.248486 0.104537 0.148081
592 4 0.460865 0.0788616 0.138178
591 2 0.448017 0.110459 0.14988
593 4 0.43517 0.142057 0.161583
1291 4 0.117043 0.212511 0.127706
1290 2 0.14926 0.22312 0.115461
1292 4 0.181477 0.233728 0.103217
79 4 0.459711 0.165329 0.155274
78 2 0.481028 0.192936 0.146117
370 4 0.244259 0.237469 0.472709
531 2 0.378759 0.333088 0.172252
533 4 0.342839 0.330601 0.174241
1058 4 0.0274016 0.355961 0.162989
1343 4 0.0982909 0.4036 0.13401
926 4 0.193398 0.396183 0.0814045
462 2 0.400273 0.416046 0.106869
1098 2 0.483294 0.357819 0.0796577
1099 4 0.491227 0.385715 0.101088
464 4 0.430318 0.408315 0.0884874
1469 4 0.0709008 0.874447 0.434981
615 2 0.0013811 0.47657 0.0911216
217 4 0.0160554 0.477275 0.150281
1342 4 0.118203 0.468749 0.157689
1341 2 0.108248 0.436174 0.14585
232 4 0.228818 0.401457 0.0929095
233 4 0.229083 0.443047 0.151832
231 2 0.228951 0.422252 0.122371
463 4 0.370227 0.423778 0.125252
944 4 0.00144608 0.526959 0.126058
226 4 0.120757 0.50144 0.168067
674 4 0.223268 0.584851 0.179448
1265 4 0.324052 0.57883 0.128587
1263 2 0.345178 0.549654 0.130299
1264 4 0.366304 0.52048 0.132012
100 4 0.240583 0.649355 0.118185
62 4 0.274928 0.664307 0.116115
60 2 0.300839 0.641421 0.126373
61 4 0.326753 0.618534 0.136632
1144 4 0.372882 0.746133 0.14889
1143 2 0.407696 0.755094 0.151728
1266 2 0.489102 0.807829 0.130952
1145 4 0.442511 0.764055 0.154566
1267 4 0.477479 0.778952 0.112746
1459 4 0.0607883 0.919946 0.102622
1458 2 0.0460699 0.894406 0.123394
1460 4 0.0313508 0.868866 0.144168
59 4 0.0723509 0.955626 0.0969854
341 4 0.345857 0.931295 0.452192
486 2 0.0126207 0.985578 0.14274
1205 4 0.286035 0.989224 0.118387
1334 4 0.196016 0.0603263 0.221528
844 4 0.289204 0.124986 0.203987
1333 4 0.233723 0.117968 0.242914
1332 2 0.21487 0.0891472 0.232221
509 4 0.14604 0.234478 0.217005
195 2 0.248352 0.234903 0.223606
197 4 0.216112 0.222957 0.234481
507 2 0.171789 0.224941 0.240382
196 4 0.280593 0.246851 0.21273
398 4 0.285767 0.236063 0.243452
623 4 0.427126 0.222266 0.238899
1326 2 0.137677 0.294446 0.192115
1327 4 0.128527 0.329281 0.193907
1328 4 0.146828 0.259611 0.190323
532 4 0.41468 0.335574 0.170264
1240 4 0.369794 0.385884 0.209811
1374 2 0.472023 0.33755 0.19725
1376 4 0.446385 0.313958 0.187948
1396 4 0.48533 0.383585 0.227726
216 2 0.0371828 0.488202 0.177386
1420 4 0.349277 0.494463 0.264018
1239 2 0.341204 0.404521 0.22146
218 4 0.05831 0.499128 0.204491
225 2 0.144713 0.512341 0.192718
227 4 0.168669 0.523243 0.217369
672 2 0.225086 0.5757 0.214281
673 4 0.226904 0.566548 0.249114
1211 4 0.160879 0.640825 0.24615
934 4 0.355043 0.665648 0.228479
1172 4 0.347837 0.591965 0.158963
1170 2 0.350963 0.610608 0.189673
1171 4 0.354087 0.629253 0.220382
745 4 0.137506 0.740397 0.194835
744 2 0.127198 0.712942 0.215821
605 4 0.14244 0.665299 0.263607
746 4 0.11689 0.685487 0.236805
1180 4 0.112653 0.775477 0.187584
1179 2 0.12928 0.803001 0.203906
1181 4 0.145907 0.830524 0.220227
199 4 0.178043 0.975077 0.420371
427 4 0.0180004 0.952733 0.228653
1302 2 0.311184 0.0292818 0.324076
1303 4 0.333876 0.0523309 0.30813
200 4 0.248547 0.965314 0.43201
1270 4 0.136637 0.199534 0.321273
1269 2 0.111195 0.184875 0.300339
1018 4 0.377108 0.120796 0.315955
125 4 0.494233 0.0931926 0.288901
123 2 0.4756 0.11176 0.264233
124 4 0.456967 0.130327 0.239564
1453 4 0.015102 0.172236 0.297989
988 4 0.0321978 0.192344 0.270667
987 2 0.0218378 0.224678 0.258515
1271 4 0.0857522 0.170217 0.279405
508 4 0.197537 0.215403 0.263758
621 2 0.42594 0.241312 0.269497
622 4 0.424752 0.260358 0.300094
989 4 0.0114767 0.257012 0.246364
396 2 0.307875 0.262897 0.253024
397 4 0.329981 0.28973 0.262596
76 4 0.4266 0.334066 0.327783
77 4 0.453912 0.270234 0.308261
75 2 0.440256 0.30215 0.318022
1289 4 0.395797 0.351276 0.317111
1241 4 0.312615 0.42316 0.233109
412 4 0.166988 0.532863 0.341381
1259 4 0.192709 0.548528 0.320504
647 4 0.198048 0.497056 0.336917
679 4 0.326402 0.541713 0.307528
678 2 0.303469 0.562337 0.326212
1421 4 0.356071 0.530268 0.326256
1419 2 0.352674 0.512365 0.295137
604 4 0.0816716 0.662553 0.302353
1210 4 0.196509 0.592463 0.286063
1209 2 0.178694 0.616643 0.266106
826 4 0.243995 0.649845 0.278029
825 2 0.254495 0.635039 0.309189
935 4 0.386743 0.647313 0.290615
115 4 0.358759 0.643153 0.319696
933 2 0.370894 0.656481 0.259546
955 4 0.394365 0.623431 0.322538
603 2 0.112056 0.663926 0.282981
770 4 0.250637 0.682623 0.263349
768 2 0.271579 0.711721 0.259455
769 4 0.292521 0.740818 0.255561
726 2 0.0771739 0.800774 0.261577
728 4 0.0789638 0.836141 0.268384
447 2 0.0204665 0.843129 0.314712
727 4 0.0753831 0.765406 0.25477
1318 4 0.284704 0.828548 0.274698
1317 2 0.294156 0.827099 0.309468
448 4 0.0477516 0.865423 0.307039
403 4 0.0718691 0.870674 0.280842
402 2 0.0871953 0.899808 0.26612
314 4 0.412851 0.875099 0.275301
312 2 0.385585 0.862123 0.295013
313 4 0.358318 0.849145 0.314725
404 4 0.10252 0.928942 0.251398
698 4 0.233178 0.949274 0.295496
696 2 0.256477 0.976455 0.299829
504 2 0.124806 0.0116043 0.415158
506 4 0.105894 0.0398001 0.403002
1304 4 0.288493 0.00623281 0.34002
697 4 0.279775 0.00363551 0.304162
589 4 0.28036 0.0593331 0.390125
588 2 0.266704 0.0280878 0.401858
69 2 0.48538 0.00377422 0.387456
585 2 0.418426 0.0425176 0.377054
586 4 0.423046 0.0620483 0.347094
587 4 0.413806 0.0229868 0.407015
70 4 0.48937 0.0302537 0.411609
1017 2 0.363609 0.12571 0.349031
1019 4 0.350109 0.130624 0.382108
1426 4 0.0542082 0.226452 0.38993
119 4 0.297314 0.208123 0.349109
117 2 0.282135 0.233052 0.370287
970 4 0.366976 0.162427 0.390873
969 2 0.355998 0.194936 0.37978
971 4 0.345019 0.227445 0.368685
707 4 0.365101 0.249206 0.391352
1476 2 0.0323436 0.327593 0.357902
1477 4 0.0649411 0.321421 0.343769
118 4 0.266957 0.257982 0.391466
1478 4 0.999747 0.333767 0.372035
1025 4 0.0999278 0.422521 0.4175
1287 2 0.409919 0.368442 0.345508
881 4 0.398237 0.387857 0.401202
1288 4 0.42404 0.385607 0.373904
879 2 0.372637 0.41291 0.405372
1023 2 0.0711031 0.417555 0.396406
1024 4 0.0422785 0.412589 0.375313
646 4 0.237953 0.473445 0.392159
645 2 0.218 0.48525 0.364537
863 4 0.323012 0.505961 0.335926
861 2 0.327271 0.479383 0.359923
862 4 0.331529 0.452805 0.38392
880 4 0.347038 0.437962 0.409543
131 4 0.439034 0.510798 0.382614
1227 2 0.0107955 0.551117 0.368253
1228 4 0.00324397 0.557711 0.333613
1229 4 0.0183474 0.544523 0.402892
411 2 0.136707 0.552445 0.341508
413 4 0.106427 0.572028 0.341637
1257 2 0.216835 0.569464 0.33724
351 2 0.413744 0.532487 0.338107
353 4 0.381118 0.546721 0.343883
129 2 0.472198 0.507236 0.396321
352 4 0.44637 0.518254 0.332331
451 4 0.0014283 0.91192 0.45658
1039 4 0.106775 0.585148 0.380383
1038 2 0.125044 0.616221 0.381444
1040 4 0.143313 0.647294 0.382506
1258 4 0.240966 0.590411 0.353983
272 4 0.238418 0.628174 0.370016
270 2 0.206126 0.644233 0.369348
161 4 0.23406 0.595535 0.393747
827 4 0.264987 0.620228 0.340351
116 4 0.302415 0.616266 0.355785
680 4 0.280531 0.58297 0.3449
830 4 0.276242 0.644213 0.371174
667 4 0.270427 0.604509 0.378053
114 2 0.330578 0.629712 0.337743
666 2 0.2966 0.593161 0.400129
954 2 0.409118 0.635841 0.353016
1202 4 0.385379 0.650406 0.39728
860 4 0.452172 0.636163 0.3939
956 4 0.423867 0.648252 0.383492
1119 2 0.142449 0.745913 0.408019
271 4 0.173841 0.660285 0.368676
828 2 0.286529 0.671298 0.392635
829 4 0.296814 0.698393 0.414094
865 4 0.00277704 0.784037 0.324418
1121 4 0.176891 0.753403 0.400403
138 2 0.21951 0.775749 0.387331
139 4 0.18608 0.775115 0.373825
140 4 0.252941 0.776383 0.400837
539 4 0.0285921 0.879123 0.359647
537 2 0.0558533 0.869537 0.381219
538 4 0.0831139 0.859951 0.402791
1319 4 0.303607 0.82565 0.344239
848 4 0.323577 0.893105 0.430873
846 2 0.349377 0.868741 0.424458
847 4 0.375176 0.844376 0.418044
1052 4 0.400059 0.819894 0.416015
505 4 0.143718 0.983409 0.427314
590 4 0.253049 0.996842 0.413592
614 4 0.386996 0.953572 0.420577
613 4 0.390524 0.955256 0.348561
612 2 0.38876 0.954414 0.384569
71 4 0.481389 0.977296 0.363302
911 4 0.00289794 0.246751 0.35646
198 2 0.213295 0.970195 0.42619
903 2 0.403625 0.00997292 0.443046
905 4 0.424308 0.0394264 0.440786
1076 4 0.447424 0.0678532 0.442914
1074 2 0.479151 0.0612715 0.458741
583 4 0.211319 0.158335 0.422074
582 2 0.237189 0.150361 0.445898
565 4 0.219324 0.114781 0.484786
1207 4 0.297808 0.153898 0.479136
1322 4 0.0648305 0.256037 0.488257
1425 2 0.059389 0.231037 0.425321
560 4 0.214727 0.251564 0.484991
584 4 0.263058 0.142388 0.469723
1427 4 0.0645691 0.235622 0.460712
369 2 0.263196 0.266703 0.463374
371 4 0.282133 0.295937 0.454038
162 2 0.247103 0.350019 0.44627
163 4 0.250287 0.314212 0.449135
705 2 0.377872 0.267757 0.419516
599 4 0.381908 0.309241 0.473051
706 4 0.390643 0.286308 0.447679
597 2 0.413623 0.321787 0.461338
1091 4 0.494268 0.253894 0.440145
164 4 0.243919 0.385825 0.443406
598 4 0.445337 0.334334 0.449625
1096 4 0.0887065 0.503852 0.484778
676 4 0.130605 0.442033 0.440771
675 2 0.111494 0.472518 0.443192
677 4 0.0923824 0.503003 0.445614
1344 2 0.339237 0.424599 0.480209
1346 4 0.356801 0.425543 0.448728
491 4 0.0807568 0.564597 0.461986
489 2 0.0485574 0.554364 0.449382
490 4 0.0163573 0.544132 0.436778
864 2 0.00131647 0.748018 0.325365
102 2 0.12793 0.54318 0.482074
103 4 0.107987 0.538835 0.452345
160 4 0.19496 0.568736 0.448114
1285 4 0.197496 0.576987 0.482293
159 2 0.214509 0.582133 0.420934
668 4 0.322751 0.5818 0.422208
1070 4 0.347545 0.653736 0.489202
1201 4 0.350217 0.601898 0.437435
1200 2 0.367798 0.626151 0.417358
858 2 0.462409 0.663155 0.415511
859 4 0.472648 0.690146 0.437122
1378 4 0.135634 0.663683 0.469816
1120 4 0.108006 0.738423 0.415634
849 2 0.348787 0.707687 0.435238
851 4 0.36574 0.680791 0.418219
1468 4 0.0287306 0.839028 0.481552
928 4 0.456305 0.695195 0.470435
1467 2 0.0498158 0.856737 0.458267
1474 4 0.310579 0.773751 0.485829
1473 2 0.310568 0.796899 0.458178
1475 4 0.310557 0.820047 0.430527
850 4 0.331833 0.734583 0.452257
1050 2 0.43427 0.821045 0.427356
266 4 0.495455 0.838376 0.422923
1051 4 0.468481 0.822195 0.438698
430 4 0.306485 0.996806 0.505805
429 2 0.276218 0.977707 0.510236
248 4 0.335657 0.997341 0.527991
246 2 0.35925 0.0204094 0.542539
247 4 0.382844 0.0434762 0.557088
1178 4 0.0363713 0.106115 0.575382
723 2 0.0171377 0.155847 0.523987
725 4 0.0186 0.127529 0.546268
1208 4 0.282991 0.163747 0.549031
1206 2 0.290399 0.158822 0.514084
1447 4 0.486953 0.111912 0.577301
724 4 0.0156755 0.184163 0.501707
1321 4 0.0124437 0.215875 0.517313
1320 2 0.0386368 0.235956 0.502784
1123 4 0.137991 0.212044 0.578413
337 4 0.193813 0.247663 0.565674
1275 2 0.317991 0.243205 0.578135
1088 4 0.0343453 0.0358833 0.975325
481 4 0.358512 0.203733 0.551611
480 2 0.389606 0.220825 0.558043
1337 4 0.437313 0.220452 0.537583
1335 2 0.454976 0.191042 0.52647
1336 4 0.472639 0.161632 0.515357
482 4 0.420701 0.237918 0.564475
558 2 0.191943 0.275793 0.49893
559 4 0.169161 0.300023 0.512869
1105 4 0.185389 0.299605 0.547465
1104 2 0.212468 0.308128 0.569703
1276 4 0.34118 0.26805 0.566077
107 4 0.346746 0.299823 0.584083
1306 4 0.1736 0.425656 0.564493
1307 4 0.188095 0.382475 0.508575
1305 2 0.180847 0.404066 0.536533
1345 4 0.321673 0.423655 0.51169
1095 2 0.0755708 0.483822 0.511734
1097 4 0.0624349 0.46379 0.53869
357 2 0.218425 0.470041 0.583216
359 4 0.252182 0.481735 0.588131
358 4 0.184668 0.458348 0.578301
379 4 0.332613 0.445358 0.587159
749 4 0.321996 0.453575 0.553126
748 4 0.265248 0.497988 0.556094
747 2 0.293622 0.475781 0.554609
921 2 0.495631 0.465353 0.568496
804 2 0.141089 0.543871 0.579622
1284 2 0.195527 0.573859 0.518165
1286 4 0.193558 0.570732 0.554035
806 4 0.176486 0.549997 0.57646
1379 4 0.103391 0.612337 0.508876
1086 2 0.0129909 0.0309593 0.946686
620 4 0.256489 0.645772 0.512365
1068 2 0.377721 0.662094 0.507088
1129 4 0.487735 0.623519 0.569683
1128 2 0.48267 0.587901 0.567202
7 3 0.151157 0.699125 0.581853
9 3 0.156363 0.718084 0.531336
6 1 0.155696 0.690423 0.550161
8 3 0.130385 0.670719 0.540622
10 3 0.184153 0.674265 0.547349
619 4 0.213278 0.697164 0.538694
618 2 0.234884 0.671468 0.52553
570 2 0.352552 0.73701 0.530042
1069 4 0.407898 0.670453 0.524975
572 4 0.346443 0.701529 0.532101
929 4 0.447127 0.720768 0.537244
1094 4 0.331986 0.786939 0.551989
1092 2 0.29943 0.780714 0.566194
571 4 0.358661 0.77249 0.527983
995 4 0.236509 0.895594 0.540793
530 4 0.248876 0.874521 0.562431
528 2 0.254516 0.841447 0.575647
1061 4 0.449291 0.871638 0.57622
1186 4 0.00930676 0.955455 0.560157
994 4 0.208972 0.951694 0.504792
993 2 0.222741 0.923643 0.522792
340 4 0.357727 0.965344 0.514654
761 4 0.394024 0.957278 0.517877
760 4 0.462044 0.935624 0.507577
759 2 0.428034 0.946451 0.512726
186 2 0.173322 0.0818795 0.632778
188 4 0.143879 0.0838771 0.612054
1505 4 0.232884 0.998578 0.626287
1503 2 0.235792 0.013821 0.658839
1437 2 0.469317 0.00739523 0.595104
1439 4 0.49013 0.0272618 0.616842
1177 4 0.0618141 0.101963 0.64274
425 4 0.083895 0.119122 0.665265
423 2 0.070676 0.152291 0.67031
1176 2 0.0490928 0.104039 0.609062
187 4 0.202765 0.0798822 0.653504
1448 4 0.426004 0.130939 0.610843
1446 2 0.456478 0.121426 0.594071
901 4 0.451829 0.151876 0.624928
1124 4 0.0683666 0.212022 0.559598
1122 2 0.103179 0.212033 0.569006
1107 2 0.0424629 0.243565 0.675997
1109 4 0.0316018 0.209197 0.677128
338 4 0.146444 0.249554 0.620025
170 4 0.122271 0.265336 0.638185
336 2 0.170128 0.248609 0.59285
1084 4 0.169516 0.171869 0.665249
1277 4 0.294802 0.21836 0.590193
149 4 0.460104 0.240791 0.64998
902 4 0.465245 0.208694 0.667277
900 2 0.458537 0.180285 0.646102
1108 4 0.0533244 0.277933 0.674866
168 2 0.117222 0.301035 0.638831
169 4 0.112173 0.336735 0.639477
1106 4 0.239546 0.316648 0.591942
1079 4 0.227678 0.297757 0.621368
1078 4 0.292626 0.26708 0.627878
1077 2 0.260152 0.282418 0.624623
105 2 0.382206 0.297315 0.590141
106 4 0.417667 0.294807 0.596199
1163 4 0.0993558 0.410058 0.674753
378 2 0.348296 0.419795 0.607184
380 4 0.363978 0.394231 0.627208
1161 2 0.104675 0.431498 0.64625
1162 4 0.109993 0.452938 0.617746
189 2 0.2893 0.441011 0.658496
191 4 0.279253 0.469487 0.638784
395 4 0.405723 0.494338 0.662052
923 4 0.466826 0.454804 0.587453
805 4 0.105693 0.537745 0.582785
257 4 0.240493 0.57424 0.619775
1130 4 0.477605 0.552284 0.564721
274 4 0.0261978 0.647514 0.648495
255 2 0.242336 0.576705 0.583846
256 4 0.244179 0.57917 0.547916
1132 4 0.2418 0.610251 0.66298
502 4 0.272733 0.603168 0.641584
501 2 0.308675 0.606045 0.641
503 4 0.344617 0.608922 0.640415
997 4 0.448527 0.991273 0.946638
996 2 0.463515 0.960375 0.935637
1293 2 0.00404234 0.76146 0.587526
1295 4 0.0379106 0.74913 0.588682
895 4 0.0551151 0.743774 0.621505
894 2 0.0711862 0.753881 0.652164
896 4 0.0872556 0.763987 0.682824
515 4 0.176408 0.822933 0.654872
513 2 0.16703 0.793623 0.636077
514 4 0.157651 0.764311 0.617283
1093 4 0.266874 0.774489 0.580399
529 4 0.260156 0.808372 0.588863
1022 4 0.44405 0.897495 0.601912
1059 2 0.479608 0.866015 0.594918
1492 4 0.222268 0.936325 0.577131
1491 2 0.207973 0.964572 0.594399
1493 4 0.193678 0.99282 0.611667
392 4 0.314663 0.947262 0.619498
391 4 0.273783 0.00514669 0.632911
390 2 0.294223 0.976204 0.626204
608 4 0.331588 0.966915 0.645187
606 2 0.367242 0.970168 0.649512
607 4 0.402894 0.973421 0.653837
1020 2 0.433966 0.930702 0.592115
1438 4 0.448505 0.98753 0.573364
1021 4 0.423881 0.963909 0.582317
1016 4 0.103295 0.0721242 0.735684
1014 2 0.138154 0.0760902 0.727345
1504 4 0.2387 0.0290644 0.69139
1196 4 0.213455 0.0130429 0.709592
1015 4 0.173013 0.0800563 0.719005
1194 2 0.209796 0.0148104 0.745424
641 4 0.0280013 0.841134 0.519498
137 4 0.499593 0.0546837 0.684667
602 4 0.478369 0.0820746 0.679507
363 2 0.242667 0.115951 0.70555
1388 4 0.292857 0.125557 0.705334
1386 2 0.312295 0.15574 0.708727
364 4 0.269534 0.118789 0.681664
1387 4 0.331733 0.185924 0.712121
424 4 0.0574586 0.185461 0.675356
1085 4 0.203025 0.216595 0.710838
1083 2 0.18627 0.194232 0.688043
756 2 0.238741 0.220755 0.737446
757 4 0.217354 0.194501 0.749847
758 4 0.260126 0.247008 0.725044
147 2 0.479729 0.249864 0.67884
205 4 0.0898547 0.286491 0.67944
204 2 0.0947243 0.295326 0.714062
206 4 0.0995942 0.304162 0.748683
63 2 0.16906 0.314602 0.751501
64 4 0.203054 0.322216 0.742178
795 2 0.250516 0.358539 0.755612
1249 4 0.288582 0.245879 0.74526
1153 4 0.0299403 0.401427 0.704856
796 4 0.285694 0.364657 0.75056
1152 2 0.0425796 0.426382 0.727614
1154 4 0.0552201 0.451337 0.750371
190 4 0.299346 0.412535 0.678208
393 2 0.382554 0.484732 0.687962
394 4 0.359384 0.475126 0.713872
273 2 0.0109278 0.648591 0.681146
566 4 0.219309 0.0603392 0.53209
1131 2 0.242051 0.637509 0.686589
1357 4 0.484413 0.63233 0.723968
1133 4 0.242301 0.664767 0.710198
372 2 0.470081 0.734714 0.707017
374 4 0.436796 0.721345 0.710736
383 4 0.0857412 0.753399 0.750571
290 4 0.0498817 0.732111 0.754598
1191 2 0.0636686 0.827592 0.72442
1193 4 0.0475747 0.837104 0.693583
794 4 0.0189233 0.842401 0.672141
356 4 0.420989 0.0029208 0.929587
1220 4 0.133202 0.895234 0.73354
1451 4 0.180437 0.852276 0.664657
1449 2 0.174352 0.869612 0.695685
499 4 0.357724 0.839632 0.717599
798 2 0.365735 0.908709 0.726711
800 4 0.367069 0.875586 0.712515
1219 4 0.104098 0.958007 0.713194
1218 2 0.11865 0.926621 0.723367
799 4 0.3644 0.941832 0.740907
710 4 0.409932 0.965779 0.68762
708 2 0.445903 0.96374 0.68913
709 4 0.481875 0.961701 0.690641
343 4 0.984098 0.0750172 0.807301
1514 4 0.99856 0.0452503 0.78759
418 4 0.1051 0.0183957 0.81471
1338 2 0.115085 0.0570401 0.831506
1340 4 0.129063 0.0847132 0.813086
1195 4 0.206137 0.0165784 0.781255
74 4 0.211223 0.0335148 0.812645
72 2 0.187997 0.0604219 0.806562
73 4 0.164771 0.0873288 0.800479
704 4 0.316899 0.0569649 0.796144
702 2 0.287863 0.0469823 0.777231
703 4 0.258828 0.036999 0.758317
342 2 0.994963 0.101636 0.785534
1384 4 0.0542539 0.162625 0.800162
365 4 0.2158 0.113113 0.729435
1072 4 0.232397 0.148249 0.82094
1183 4 0.0335561 0.189873 0.789594
1182 2 0.0634343 0.19755 0.770918
1184 4 0.0933118 0.205227 0.752242
1073 4 0.292451 0.1579 0.782185
1071 2 0.262424 0.153075 0.801562
65 4 0.135067 0.306989 0.760824
797 4 0.215339 0.352421 0.760665
1248 2 0.320266 0.255093 0.759807
1250 4 0.351951 0.264306 0.774355
254 4 0.341294 0.319375 0.835202
546 2 0.418 0.300858 0.761628
548 4 0.412011 0.266669 0.751846
547 4 0.423988 0.335046 0.771409
253 4 0.347884 0.378594 0.794564
252 2 0.344589 0.348985 0.814883
884 4 0.50447 0.41055 0.756295
1036 4 0.330664 0.458945 0.806978
1037 4 0.386821 0.498464 0.82903
1035 2 0.358743 0.478705 0.818004
882 2 0.495494 0.442929 0.769391
883 4 0.486519 0.475307 0.782488
142 4 0.13123 0.534556 0.749462
141 2 0.130911 0.546362 0.783535
484 4 0.116869 0.655338 0.827408
483 2 0.12838 0.621231 0.82956
485 4 0.139892 0.587125 0.831711
1190 4 0.22729 0.61456 0.819777
1188 2 0.199101 0.593966 0.828812
656 4 0.141488 0.689727 0.820775
654 2 0.111367 0.701343 0.804706
655 4 0.0812456 0.712957 0.788637
1212 2 0.385329 0.687836 0.821698
1214 4 0.352024 0.688624 0.807892
1358 4 0.471364 0.691158 0.7636
1356 2 0.477888 0.661744 0.743784
288 2 0.0212408 0.753953 0.75285
1192 4 0.0797622 0.81808 0.755257
454 4 0.305203 0.943595 0.961332
381 2 0.106356 0.773977 0.771833
382 4 0.12697 0.794555 0.793094
1256 4 0.159048 0.816075 0.780491
1254 2 0.140518 0.845966 0.772519
500 4 0.320344 0.819057 0.775746
498 2 0.339034 0.829344 0.746673
785 4 0.306579 0.807519 0.803799
638 4 0.475335 0.785075 0.80998
841 4 0.491434 0.756186 0.797957
636 2 0.441632 0.783494 0.822711
637 4 0.40793 0.781913 0.835441
1450 4 0.168267 0.88695 0.726714
1255 4 0.121987 0.875857 0.764547
767 4 0.259551 0.919914 0.754225
417 2 0.0880798 0.989883 0.800648
419 4 0.0710616 0.961372 0.786585
765 2 0.279554 0.928406 0.783004
766 4 0.299557 0.936898 0.811782
1339 4 0.101108 0.0293679 0.849926
681 2 0.323873 0.0659949 0.891012
682 4 0.355909 0.0568527 0.904817
1383 2 0.0504826 0.160635 0.83597
1385 4 0.0467116 0.158647 0.871778
165 2 0.226151 0.130468 0.90674
167 4 0.209518 0.145801 0.878656
683 4 0.291837 0.0751364 0.877207
609 2 0.48113 0.102694 0.850002
610 4 0.459052 0.130958 0.85377
886 4 0.451499 0.133215 0.889475
742 4 0.144744 0.213876 0.891491
741 2 0.179628 0.207658 0.884793
743 4 0.214512 0.201439 0.878096
872 4 0.481604 0.199772 0.898992
870 2 0.464249 0.210893 0.869402
871 4 0.446895 0.222014 0.839812
1489 4 0.128386 0.283721 0.899681
1488 2 0.149824 0.265921 0.922571
209 4 0.151183 0.373098 0.888143
208 4 0.215488 0.375458 0.855571
207 2 0.183335 0.374279 0.871857
236 4 0.469601 0.370833 0.926954
193 4 0.439767 0.374528 0.900533
143 4 0.130593 0.558168 0.817606
772 4 0.0961387 0.65893 0.854487
771 2 0.0902357 0.660265 0.890036
1189 4 0.170911 0.573372 0.837847
95 4 0.224202 0.64467 0.868969
730 4 0.24055 0.745329 0.893007
94 4 0.237086 0.714966 0.87867
93 2 0.230644 0.679818 0.87382
1213 4 0.418633 0.687047 0.835504
953 4 0.336144 0.807716 0.902347
784 4 0.277214 0.862483 0.840106
783 2 0.291897 0.835001 0.821952
952 4 0.390817 0.854745 0.903271
951 2 0.363481 0.83123 0.902809
367 4 0.471411 0.897244 0.943895
329 4 0.25639 0.101071 0.985101
354 2 0.39448 0.0269623 0.93402
355 4 0.36797 0.0510039 0.938454
628 4 0.442255 0.00982379 0.993469
166 4 0.242784 0.115135 0.934823
327 2 0.22958 0.0783282 0.977081
328 4 0.202769 0.0555844 0.96906
887 4 0.462963 0.148621 0.958994
885 2 0.457231 0.140918 0.924235
688 4 0.491648 0.163626 0.977271
1490 4 0.171262 0.24812 0.94546
876 2 0.287018 0.253868 0.990893
878 4 0.266533 0.282537 0.98322
1198 4 0.273889 0.318882 0.971319
192 2 0.432596 0.404482 0.919288
279 2 0.16612 0.509369 0.98956
280 4 0.15354 0.477493 0.978331
983 4 0.16131 0.448728 0.959627
982 4 0.229107 0.430234 0.975852
981 2 0.195208 0.43948 0.967739
81 2 0.437549 0.484366 0.932536
194 4 0.425426 0.434435 0.938044
83 4 0.424598 0.45858 0.910908
302 4 0.467911 0.540451 0.964418
82 4 0.450499 0.510152 0.954164
300 2 0.487845 0.545864 0.934859
1146 2 0.0089539 0.648226 0.959849
455 4 0.279733 0.996599 0.003086
1148 4 0.0101161 0.612548 0.954735
773 4 0.0843325 0.6616 0.925586
960 2 0.316471 0.641216 0.984895
962 4 0.330484 0.609511 0.974952
868 4 0.483207 0.584351 0.998408
1371 2 0.070484 0.702642 0.97861
1373 4 0.0661176 0.67386 0.957326
912 2 0.305713 0.729004 0.969478
914 4 0.289111 0.712426 0.996866
152 4 0.173738 0.802469 0.906149
729 2 0.215871 0.762588 0.912841
731 4 0.191191 0.779849 0.932675
913 4 0.322316 0.745579 0.942092
150 2 0.171748 0.830011 0.929342
151 4 0.16976 0.857552 0.952535
998 4 0.478504 0.929477 0.924636
368 4 0.411431 0.857729 0.937356
366 2 0.441421 0.877486 0.940626
179 4 0.483709 0.858924 0.993643
177 2 0.500113 0.827994 0.985003
1324 4 0.128768 0.933409 0.984226
453 2 0.292468 0.970097 0.982209
133 4 0.502029 0.660588 0.702306
1136 4 0.497642 0.146271 0.563136
344 4 0.00582754 0.128255 0.763768
611 4 0.503208 0.0744305 0.846235
553 4 0.487946 0.222012 0.926953
1147 4 0.00779213 0.683903 0.964962
431 4 0.245952 0.958609 0.514667
564 2 0.219316 0.0875606 0.508438
104 4 0.147873 0.547526 0.511804
927 2 0.451715 0.707982 0.50384
471 2 0.505553 0.0502202 0.0484352
473 4 0.517628 0.0183935 0.0603376
1156 4 0.60189 0.077659 0.0774125
1155 2 0.627361 0.0681089 0.053739
1157 4 0.652832 0.0585584 0.030066
1408 4 0.699286 0.141698 0.0737279
670 4 0.814512 0.140638 0.0724338
361 4 0.844824 0.135515 0.0552674
360 2 0.848811 0.110602 0.0295023
854 4 0.496791 0.240415 0.0110449
1407 2 0.696958 0.161055 0.0433918
1409 4 0.694631 0.180412 0.0130547
669 2 0.818882 0.176295 0.0692913
671 4 0.823251 0.211952 0.0661489
13 3 0.978085 0.212194 0.0727563
40 3 0.653501 0.286406 0.0687187
1064 4 0.81655 0.239991 0.0474117
1062 2 0.790279 0.254617 0.0673194
240 2 0.852219 0.301081 0.0232099
220 4 0.857682 0.286947 0.0916939
241 4 0.855305 0.286002 0.0558212
662 4 0.960584 0.288363 0.0172913
660 2 0.950119 0.257114 0.00265126
457 4 0.603562 0.405682 0.0811168
97 4 0.743138 0.410056 0.0711212
96 2 0.731135 0.384173 0.0931776
652 4 0.838023 0.408629 0.0150781
1509 2 0.517776 0.482951 0.0101481
1510 4 0.547142 0.462025 0.010533
224 4 0.741336 0.438246 0.0431395
222 2 0.775962 0.428922 0.0393327
223 4 0.810588 0.419599 0.0355267
1413 2 0.950049 0.43319 0.0249276
1414 4 0.9383 0.45766 0.0486659
51 2 0.652777 0.550746 0.0889737
52 4 0.669373 0.525298 0.0695463
130 4 0.505362 0.503676 0.410028
1495 4 0.905818 0.544767 0.0102856
17 3 0.770608 0.628913 0.0133149
1367 4 0.904891 0.657965 0.0586257
1366 4 0.973604 0.659772 0.0367903
1365 2 0.939247 0.658869 0.0477081
437 4 0.977344 0.660441 0.0754092
1515 2 0.768145 0.705952 0.0486969
1516 4 0.735461 0.694909 0.0381963
19 3 0.776572 0.682791 0.0130701
1517 4 0.800828 0.716994 0.0591976
819 2 0.846276 0.802281 0.00694857
184 4 0.505784 0.909369 0.0795342
1465 4 0.508258 0.918786 0.0461089
1452 2 0.993476 0.151373 0.278052
305 4 0.681924 0.872118 0.0444729
303 2 0.688469 0.847055 0.0193843
820 4 0.842298 0.83483 0.0219541
1466 4 0.517097 0.989888 0.0378669
1464 2 0.512677 0.954337 0.041988
1436 4 0.831056 0.916132 0.0363585
831 2 0.893048 0.9395 0.0494683
832 4 0.858033 0.932389 0.0543434
833 4 0.928063 0.946612 0.044593
1382 4 0.914306 0.976948 0.108283
153 2 0.744296 0.163121 0.150623
1226 4 0.624261 0.212017 0.118951
1224 2 0.65622 0.195526 0.116286
1225 4 0.688178 0.179034 0.113621
154 4 0.723513 0.176392 0.12431
492 2 0.787906 0.236832 0.151432
493 4 0.821387 0.2484 0.144677
649 4 0.976942 0.186819 0.10337
14 3 0.949802 0.255365 0.0912189
11 1 0.952252 0.221992 0.0916377
12 3 0.924356 0.209034 0.0792038
15 3 0.956274 0.211436 0.12248
308 4 0.544709 0.265985 0.158036
306 2 0.559868 0.283108 0.130154
36 1 0.655634 0.299989 0.0985478
38 3 0.650117 0.332933 0.0965137
460 4 0.649708 0.264424 0.136941
37 3 0.632715 0.286481 0.11837
1297 4 0.701273 0.327263 0.12158
39 3 0.685929 0.294262 0.111563
1296 2 0.731583 0.307829 0.12359
1063 4 0.764007 0.269244 0.0872268
23 3 0.813039 0.280574 0.127327
1298 4 0.761893 0.288394 0.125599
24 3 0.801182 0.33402 0.124587
21 1 0.817887 0.310486 0.141528
25 3 0.849945 0.31762 0.141963
219 2 0.887551 0.268013 0.0846392
221 4 0.917419 0.249078 0.0775845
1416 2 0.930697 0.981529 0.472239
1057 4 0.984591 0.29792 0.163374
307 4 0.575027 0.300233 0.102273
346 4 0.532279 0.460658 0.136902
345 2 0.556141 0.434543 0.129896
458 4 0.585678 0.337197 0.0949594
456 2 0.59462 0.37144 0.0880379
98 4 0.719133 0.358291 0.115234
1138 4 0.837563 0.344115 0.118175
1137 2 0.869864 0.359695 0.121966
1139 4 0.902164 0.375275 0.125757
541 4 0.850426 0.430543 0.0963766
347 4 0.580002 0.408429 0.12289
875 4 0.815862 0.418531 0.114145
873 2 0.788237 0.418674 0.137325
874 4 0.760613 0.418817 0.160504
542 4 0.911678 0.464907 0.11278
540 2 0.881052 0.447725 0.104577
53 4 0.636182 0.576193 0.108401
1463 4 0.702483 0.545854 0.0715563
1461 2 0.73084 0.544158 0.093769
1462 4 0.759197 0.542461 0.115982
1364 4 0.773093 0.571551 0.129195
1362 2 0.78611 0.567496 0.16258
1487 4 0.89733 0.581061 0.12785
943 4 0.946249 0.569727 0.108007
942 2 0.973847 0.548343 0.117033
1150 4 0.603084 0.633362 0.157053
1149 2 0.630222 0.612847 0.145093
1151 4 0.657359 0.59233 0.133132
1370 4 0.630261 0.656609 0.0706908
1368 2 0.661432 0.658843 0.0886855
1369 4 0.692601 0.661075 0.106681
319 4 0.898109 0.671487 0.172209
1268 4 0.500725 0.836706 0.149158
1217 4 0.607537 0.787985 0.134294
1215 2 0.606546 0.799531 0.168443