ITEM: TIMESTEP
1219500
ITEM: NUMBER OF ATOMS
1520
ITEM: BOX BOUNDS pp pp pp
-6.9326749999999997e+00 6.9326749999999997e+00
-6.9326749999999997e+00 6.9326749999999997e+00
-6.9326749999999997e+00 6.9326749999999997e+00
ITEM: ATOMS id type xs ys zs
531 2 0.140968 0.0155488 0.0067878
532 4 0.122478 0.0310207 0.0336055
1449 2 0.345051 0.0834254 0.0816968
1451 4 0.369586 0.0594671 0.0705415
438 2 0.225889 0.151526 0.0181084
440 4 0.207335 0.12433 0.00339382
1450 4 0.320516 0.107384 0.0928523
618 2 0.129684 0.183565 0.0632523
620 4 0.149746 0.154625 0.0554823
619 4 0.109622 0.212506 0.0710226
400 4 0.0088785 0.959359 0.328881
439 4 0.244444 0.178722 0.0328227
1408 4 0.278886 0.173907 0.0210311
456 2 0.0719685 0.258881 0.0704088
458 4 0.103997 0.248522 0.0574744
490 4 0.485396 0.754861 0.184133
955 4 0.360716 0.331038 0.139989
1197 2 0.0897022 0.37197 0.0579201
1198 4 0.0966601 0.338912 0.0453031
1051 4 0.389918 0.861881 0.454921
17 3 0.154987 0.363247 0.0183446
1278 2 0.49403 0.92735 0.281608
1367 4 0.181985 0.34413 0.0129089
266 4 0.370191 0.420819 0.0936829
1176 2 0.083744 0.478942 0.0306356
1073 4 0.0238232 0.447971 0.0526018
1177 4 0.0628029 0.454309 0.0466075
1178 4 0.104686 0.503575 0.0146643
1033 4 0.998367 0.622136 0.0274234
987 2 0.440022 0.538566 0.06844
989 4 0.422942 0.514287 0.0889163
988 4 0.457101 0.562845 0.0479634
908 4 0.436395 0.573208 0.0188038
1032 2 0.0278639 0.635442 0.0433396
1034 4 0.057361 0.648748 0.059255
803 4 0.364264 0.65146 0.0907978
51 2 0.253156 0.696733 0.0110585
53 4 0.238865 0.699962 0.0440091
801 2 0.331487 0.666167 0.093929
1439 4 0.44563 0.782097 0.0619988
1438 4 0.479307 0.721049 0.0435413
1437 2 0.462468 0.751573 0.0527699
638 4 0.406084 0.758555 0.0519736
636 2 0.391301 0.763563 0.019465
930 2 0.0709475 0.901162 0.0229055
932 4 0.0690292 0.894307 0.0582567
508 4 0.176015 0.904885 0.00106631
507 2 0.176304 0.909755 0.0367952
523 4 0.378506 0.840058 0.42989
839 4 0.0119235 0.0492196 0.299467
509 4 0.176592 0.914628 0.0725251
184 4 0.20603 0.0404382 0.117383
183 2 0.218318 0.00927957 0.130745
632 4 0.172474 0.0634659 0.099695
451 4 0.383306 0.0554138 0.106363
450 2 0.39351 0.0218609 0.114759
630 2 0.181113 0.0967732 0.110485
631 4 0.189753 0.13008 0.121275
295 4 0.226147 0.166455 0.150342
294 2 0.207998 0.178191 0.179209
1471 4 0.303278 0.207305 0.130616
1472 4 0.373502 0.193262 0.139155
1470 2 0.33839 0.200283 0.134886
457 4 0.0399404 0.269239 0.0833439
115 4 0.0610406 0.267815 0.119379
114 2 0.0423036 0.266368 0.150156
1253 4 0.1362 0.330195 0.16676
1251 2 0.106617 0.309986 0.162662
1252 4 0.0770326 0.289775 0.158566
954 2 0.384363 0.312343 0.120196
956 4 0.40801 0.293648 0.100404
1199 4 0.0827444 0.405029 0.0705356
264 2 0.388719 0.404782 0.12014
265 4 0.407247 0.388747 0.146598
1469 4 0.0775491 0.441318 0.116426
1467 2 0.0592544 0.453476 0.145026
1468 4 0.040959 0.465632 0.173624
1484 4 0.248166 0.478558 0.148426
1080 2 0.445453 0.477881 0.142924
1082 4 0.451431 0.493614 0.174817
1081 4 0.439475 0.462147 0.111032
570 2 0.0655823 0.656161 0.119786
572 4 0.0436728 0.655909 0.0911442
148 4 0.152429 0.647007 0.121947
147 2 0.166377 0.629443 0.150184
1404 2 0.426468 0.610167 0.110874
1405 4 0.401626 0.627796 0.0915717
1406 4 0.45131 0.592538 0.130175
571 4 0.0874923 0.656413 0.148427
672 2 0.142537 0.714174 0.147408
673 4 0.158218 0.694088 0.121892
1295 4 0.288916 0.740574 0.15407
31 1 0.308986 0.682787 0.163821
802 4 0.29871 0.680875 0.0970615
33 3 0.297434 0.674878 0.133425
32 3 0.290378 0.707235 0.176339
34 3 0.340664 0.693348 0.161612
222 2 0.174578 0.821459 0.139696
224 4 0.202147 0.810826 0.119026
1294 4 0.304653 0.793393 0.200591
1293 2 0.296784 0.766984 0.17733
705 2 0.0649809 0.877198 0.142853
706 4 0.079993 0.904231 0.124299
707 4 0.0499694 0.850164 0.161407
1015 4 0.181034 0.909727 0.108788
1014 2 0.195395 0.900041 0.140416
1460 4 0.344956 0.853205 0.142619
1458 2 0.34668 0.887248 0.13085
1139 4 0.458341 0.882019 0.113189
1137 2 0.494394 0.88197 0.112444
185 4 0.230606 0.978121 0.144109
452 4 0.403715 0.988308 0.123154
1459 4 0.348404 0.92129 0.11908
682 4 0.380394 0.917098 0.103478
681 2 0.415934 0.918599 0.109398
683 4 0.451474 0.920101 0.115319
1231 4 0.1178 0.0835174 0.228417
444 2 0.267476 0.0646437 0.205591
445 4 0.247947 0.0344617 0.202756
1230 2 0.0854847 0.0991021 0.224775
1232 4 0.0531693 0.114687 0.221133
607 4 0.0207681 0.117765 0.25072
723 2 0.386636 0.97214 0.479367
1174 4 0.301938 0.117275 0.227082
446 4 0.287005 0.0948253 0.208425
1173 2 0.333338 0.133525 0.234177
1175 4 0.364738 0.149775 0.241273
517 4 0.463132 0.134319 0.222073
668 4 0.0114118 0.187322 0.18733
666 2 0.00823493 0.220416 0.201296
296 4 0.189848 0.189927 0.208075
1248 2 0.304178 0.226461 0.248955
116 4 0.0235581 0.264917 0.180938
827 4 0.00463602 0.293033 0.203343
667 4 0.00504426 0.253521 0.215266
830 4 0.0386575 0.27614 0.217807
828 2 0.072012 0.289553 0.22048
272 4 0.00683024 0.283472 0.242813
829 4 0.105379 0.302966 0.223155
1250 4 0.297622 0.256486 0.230089
1352 4 0.380876 0.380804 0.173008
1351 4 0.382115 0.378576 0.245085
1350 2 0.381495 0.37969 0.209046
783 2 0.191444 0.505206 0.244177
1482 2 0.267102 0.487902 0.177658
1483 4 0.286039 0.497245 0.206889
808 4 0.27275 0.485458 0.242165
785 4 0.198007 0.537361 0.229233
970 4 0.18278 0.569694 0.225291
677 4 0.286999 0.532367 0.231784
675 2 0.261806 0.557837 0.227669
580 4 0.409588 0.522106 0.23315
149 4 0.180326 0.61188 0.178422
676 4 0.236613 0.58331 0.223554
969 2 0.173254 0.596169 0.247846
1254 2 0.0826507 0.747239 0.193291
1255 4 0.0955351 0.715951 0.180822
674 4 0.126856 0.734259 0.172924
1216 4 0.202033 0.711119 0.250093
35 3 0.307244 0.656641 0.183624
437 4 0.340801 0.702915 0.19685
435 2 0.340334 0.718147 0.229533
461 4 0.0384314 0.791652 0.217073
1256 4 0.0697675 0.778527 0.205761
459 2 0.0159997 0.778542 0.242079
1145 4 0.0324363 0.88736 0.209289
1166 4 0.0753651 0.839212 0.184063
223 4 0.147009 0.832093 0.160367
1164 2 0.0935314 0.838684 0.21521
1165 4 0.111697 0.838155 0.246357
1016 4 0.209756 0.890356 0.172045
796 4 0.23874 0.899924 0.194349
601 4 0.022693 0.970524 0.244856
600 2 0.0507309 0.992389 0.250879
795 2 0.24452 0.934511 0.202765
797 4 0.250299 0.969096 0.211181
837 2 0.0221492 0.0651803 0.268788
434 4 0.101611 0.990737 0.279875
432 2 0.101238 9.55593e-05 0.314699
186 2 0.279218 0.0702416 0.334419
187 4 0.270758 0.0778594 0.300202
936 2 0.414118 0.993885 0.289463
938 4 0.430255 0.989014 0.257585
838 4 0.0323743 0.0811399 0.238111
606 2 0.00590335 0.149033 0.260812
1403 4 0.261486 0.110925 0.31331
1401 2 0.277028 0.137723 0.294852
733 4 0.379293 0.159125 0.303405
1249 4 0.310734 0.196435 0.267821
1402 4 0.292571 0.164522 0.276394
270 2 0.0179899 0.307487 0.267305
271 4 0.029144 0.331496 0.29179
692 4 0.294177 0.273288 0.25953
690 2 0.298998 0.30898 0.257733
534 2 0.109824 0.400824 0.285597
535 4 0.0897197 0.375604 0.301727
691 4 0.303819 0.344672 0.255936
536 4 0.129928 0.426043 0.269466
1227 2 0.19555 0.438551 0.315689
1229 4 0.176543 0.447997 0.286535
784 4 0.184879 0.47305 0.259121
807 2 0.293627 0.478487 0.270729
809 4 0.314505 0.471517 0.299294
283 4 0.326442 0.502921 0.27681
579 2 0.43174 0.513735 0.260347
581 4 0.453893 0.505364 0.287542
800 4 0.378204 0.587808 0.310279
284 4 0.356454 0.564885 0.29829
282 2 0.341449 0.533903 0.28755
694 4 0.168746 0.678072 0.00165678
971 4 0.163728 0.622644 0.270402
1217 4 0.169206 0.647325 0.242726
798 2 0.401472 0.602046 0.333864
799 4 0.424742 0.616285 0.357449
61 4 0.423183 0.655981 0.341844
543 2 0.0604321 0.699597 0.31797
544 4 0.0365891 0.716984 0.297242
831 2 0.149796 0.742676 0.308453
833 4 0.134962 0.743539 0.275595
1028 4 0.216151 0.682502 0.325147
1215 2 0.18562 0.679222 0.24641
436 4 0.339869 0.733379 0.262216
62 4 0.409572 0.698232 0.285
60 2 0.416377 0.677107 0.313421
1364 4 0.247474 0.77221 0.291925
1362 2 0.262927 0.804492 0.287511
1363 4 0.27838 0.836774 0.283098
646 4 0.0268819 0.870981 0.338327
1280 4 0.483945 0.893308 0.275294
602 4 0.0787672 0.0142539 0.256902
1291 4 0.312289 0.938675 0.324642
937 4 0.397981 0.998757 0.321342
1290 2 0.344969 0.95253 0.318281
716 4 0.00168041 0.0307151 0.33669
433 4 0.100867 0.00945443 0.349522
502 4 0.106562 0.029415 0.37717
501 2 0.131627 0.03062 0.403067
503 4 0.156693 0.0318257 0.428965
188 4 0.287678 0.0626235 0.368636
1481 4 0.388751 0.0878445 0.347313
1479 2 0.385594 0.0585153 0.368054
718 4 0.0601544 0.140649 0.33392
1480 4 0.382437 0.0291852 0.388797
820 4 0.366142 0.143332 0.383411
732 2 0.403835 0.167048 0.32861
717 2 0.0645111 0.164272 0.360816
719 4 0.0688672 0.187895 0.387712
519 2 0.352402 0.145356 0.488916
775 4 0.0872505 0.220993 0.38338
1284 2 0.276585 0.247217 0.377169
734 4 0.428376 0.174971 0.353815
552 2 0.441168 0.218972 0.389413
554 4 0.450255 0.203043 0.358363
472 4 0.0459635 0.2611 0.401724
776 4 0.127855 0.27871 0.368486
774 2 0.107553 0.249852 0.375933
1368 2 0.191615 0.282683 0.436726
1370 4 0.175376 0.267968 0.408087
1286 4 0.300323 0.251783 0.35041
431 4 0.0277117 0.399675 0.39631
550 4 0.0029187 0.506538 0.488208
708 2 0.201047 0.458616 0.401301
709 4 0.214918 0.458842 0.368015
1228 4 0.214557 0.429107 0.344843
59 4 0.484368 0.52333 0.332976
58 4 0.441337 0.580241 0.343534
57 2 0.462854 0.551786 0.338254
448 4 0.0852053 0.634912 0.429767
1025 4 0.197325 0.623765 0.404092
1027 4 0.215429 0.655279 0.391931
1108 4 0.350041 0.635211 0.348317
1107 2 0.345142 0.64078 0.383606
1109 4 0.340244 0.64635 0.418897
545 4 0.0842754 0.68221 0.338696
449 4 0.0976965 0.677215 0.372705
832 4 0.164628 0.741812 0.341311
447 2 0.0914507 0.656063 0.401236
1026 2 0.21579 0.668891 0.358539
1520 4 0.34236 0.777984 0.384583
1518 2 0.341234 0.764806 0.418131
645 2 0.00160703 0.869418 0.364
1181 4 0.200047 0.843301 0.41308
1180 4 0.255158 0.869382 0.374554
1179 2 0.227603 0.856341 0.393817
97 4 0.223906 0.885387 0.354629
96 2 0.221367 0.918842 0.341407
98 4 0.218828 0.952295 0.328186
1292 4 0.37765 0.966383 0.311921
968 4 0.296806 0.0967698 0.480572
966 2 0.262959 0.0850517 0.476391
725 4 0.389149 0.00786349 0.475133
1049 4 0.0907479 0.0950387 0.466517
1047 2 0.115995 0.0994143 0.441144
1048 4 0.141242 0.103789 0.415769
967 4 0.229112 0.0733338 0.47221
520 4 0.378062 0.120269 0.485363
821 4 0.38287 0.139224 0.453446
819 2 0.374506 0.141278 0.418428
1068 2 0.210999 0.202801 0.466594
1070 4 0.243267 0.186744 0.467749
1069 4 0.17873 0.218858 0.465438
1285 4 0.252847 0.24265 0.403929
553 4 0.432081 0.234901 0.420461
471 2 0.050171 0.281213 0.431358
473 4 0.054379 0.301327 0.460991
1369 4 0.207855 0.297399 0.465363
1052 4 0.41935 0.921725 0.482377
1514 4 0.394705 0.312545 0.492593
1238 4 0.451877 0.264676 0.482979
1236 2 0.427915 0.255491 0.457644
1237 4 0.403951 0.246306 0.43231
430 4 0.0230549 0.413068 0.467025
429 2 0.025383 0.406372 0.431667
1454 4 0.23143 0.981942 0.441532
1513 4 0.397113 0.365275 0.443446
1512 2 0.395909 0.33891 0.468019
993 2 0.0372854 0.492313 0.433933
995 4 0.0498828 0.521731 0.41731
994 4 0.0246877 0.462894 0.450555
710 4 0.187177 0.458391 0.434587
958 4 0.340638 0.491667 0.48995
1453 4 0.300749 0.973238 0.459439
957 2 0.315114 0.510226 0.472498
959 4 0.28959 0.528784 0.455048
199 4 0.490032 0.151372 0.203184
1023 2 0.170122 0.626346 0.427626
1024 4 0.14292 0.628928 0.45116
697 4 0.147621 0.629253 0.494876
1452 2 0.266089 0.97759 0.450485
661 4 0.343496 0.610122 0.49627
724 4 0.384123 0.936417 0.483601
70 4 0.0486201 0.737732 0.450561
881 4 0.377357 0.658939 0.442463
879 2 0.373033 0.694415 0.447281
880 4 0.368709 0.72989 0.4521
1519 4 0.340107 0.751627 0.451679
69 2 0.0609357 0.770026 0.440273
778 4 0.0300056 0.877824 0.439429
71 4 0.0732506 0.80232 0.429985
1050 2 0.404635 0.891803 0.468648
777 2 0.0379416 0.870856 0.473909
628 4 0.00564047 0.413354 0.496791
1190 4 0.202865 0.853059 0.447519
1188 2 0.20575 0.846565 0.482873
522 2 0.342722 0.84324 0.426751
524 4 0.306939 0.846422 0.42361
736 4 0.189176 0.243715 0.488966
256 4 0.323612 0.459611 0.494162
1004 4 0.013415 0.999938 0.12471
516 2 0.484843 0.106584 0.214341
521 4 0.326742 0.170444 0.492467
179 4 0.369648 0.238961 0.00163313
56 4 0.251766 0.273263 0.0130316
20 3 0.12193 0.405045 0.0107689
950 4 0.0723407 0.0369752 0.553836
948 2 0.0396199 0.0520855 0.555025
813 2 0.10762 0.081064 0.534271
815 4 0.136985 0.0601969 0.532648
814 4 0.0782539 0.101932 0.535895
979 4 0.046153 0.118138 0.55528
978 2 0.0645269 0.148876 0.559525
318 2 0.14791 0.169501 0.570588
320 4 0.17553 0.149843 0.582882
340 4 0.311405 0.144108 0.550521
339 2 0.309244 0.115249 0.572036
1053 2 0.00511269 0.965717 0.882362
1516 4 0.486056 0.918119 0.964722
859 4 0.490719 0.143665 0.592631
614 4 0.458515 0.150615 0.580214
980 4 0.0829005 0.179614 0.563768
319 4 0.12029 0.189156 0.558295
911 4 0.116457 0.217039 0.536221
634 4 0.249387 0.196243 0.561951
633 2 0.285123 0.191858 0.563967
475 4 0.366437 0.231551 0.518242
735 2 0.157634 0.249164 0.505572
737 4 0.126091 0.254615 0.522179
909 2 0.0970972 0.24412 0.550085
659 4 0.480649 0.898519 0.941173
474 2 0.380949 0.264221 0.52298
1156 4 0.107299 0.419084 0.548114
1155 2 0.0770296 0.401452 0.556676
1359 2 0.16268 0.3936 0.556727
1360 4 0.127069 0.389939 0.561072
1361 4 0.19829 0.397262 0.552382
855 2 0.238073 0.423503 0.556326
857 4 0.252561 0.39765 0.53578
1245 2 0.495309 0.419133 0.572629
856 4 0.223587 0.449356 0.576873
257 4 0.286456 0.405397 0.52386
255 2 0.305034 0.432504 0.509011
629 4 0.00326151 0.482451 0.517322
549 2 0.0142701 0.535859 0.505868
949 4 0.00689874 0.0671967 0.556216
1211 4 0.131372 0.579544 0.515676
286 4 0.165549 0.57045 0.523061
287 4 0.201884 0.521738 0.561905
285 2 0.183717 0.546094 0.542484
939 2 0.495218 0.552743 0.539356
941 4 0.497984 0.544862 0.504275
1209 2 0.0955396 0.580431 0.519637
698 4 0.19915 0.647237 0.542024
262 4 0.32988 0.671514 0.567584
662 4 0.319984 0.667807 0.532619
660 2 0.33174 0.638965 0.514444
665 4 0.243135 0.828131 0.50878
664 4 0.313094 0.816339 0.521751
663 2 0.278115 0.822235 0.515267
1168 4 0.451152 0.80319 0.589045
1189 4 0.208636 0.840069 0.518227
1447 4 0.346173 0.934269 0.525292
1446 2 0.34773 0.948335 0.558461
341 4 0.307085 0.0863895 0.593551
884 4 0.200192 0.124075 0.596027
882 2 0.219131 0.134343 0.624946
290 4 0.419323 0.140005 0.655534
288 2 0.449027 0.127759 0.671908
635 4 0.32086 0.187471 0.565983
613 4 0.426916 0.212342 0.600035
612 2 0.442715 0.181479 0.590125
910 4 0.0777369 0.271201 0.563949
225 2 0.0677356 0.323103 0.585838
226 4 0.0892169 0.294262 0.588524
1327 4 0.413707 0.270432 0.614962
1326 2 0.447996 0.278855 0.622289
1328 4 0.482285 0.287278 0.629616
227 4 0.0462546 0.351943 0.583151
1157 4 0.0467606 0.38382 0.565238
1097 4 0.320648 0.39332 0.597637
1095 2 0.339068 0.370639 0.618771
1096 4 0.357488 0.347956 0.639905
713 4 0.052464 0.430595 0.630898
1152 2 0.215283 0.496645 0.594628
1153 4 0.202139 0.4634 0.599358
1310 4 0.313623 0.42647 0.58917
1308 2 0.318924 0.449433 0.616465
1309 4 0.324224 0.472395 0.64376
1247 4 0.482274 0.441447 0.59778
1066 4 0.0277355 0.560543 0.625999
769 4 0.275661 0.932622 0.975096
242 4 0.159149 0.579571 0.635717
240 2 0.134319 0.554352 0.628794
241 4 0.10949 0.529134 0.62187
1154 4 0.228427 0.529891 0.589898
982 4 0.219666 0.561797 0.656578
940 4 0.492453 0.560624 0.574437
981 2 0.238389 0.591218 0.647398
983 4 0.257111 0.62064 0.638219
261 2 0.347761 0.650821 0.591089
263 4 0.365642 0.630126 0.614595
626 4 0.370397 0.630357 0.651062
903 2 0.118358 0.693709 0.626469
905 4 0.117945 0.702545 0.591509
528 2 0.209832 0.732742 0.610266
530 4 0.213129 0.697197 0.615367
526 4 0.204655 0.69269 0.651181
525 2 0.229505 0.667636 0.658611
529 4 0.206535 0.768289 0.605165
140 4 0.482985 0.76871 0.670125
1169 4 0.459573 0.794578 0.660154
1167 2 0.455363 0.798884 0.6246
468 2 0.0313901 0.966591 0.653592
470 4 0.0164131 0.995857 0.638774
180 2 0.174071 0.96547 0.641047
182 4 0.19019 0.934742 0.631231
181 4 0.157952 0.996199 0.650863
166 4 0.26239 0.945013 0.620781
165 2 0.265967 0.930158 0.653445
1448 4 0.349286 0.962401 0.591629
43 3 0.055718 0.0590898 0.704013
106 4 0.136522 0.0476235 0.72077
105 2 0.156349 0.0235777 0.70263
1146 2 0.230706 0.0276938 0.692275
107 4 0.176178 0.999532 0.684491
1147 4 0.211356 0.00521248 0.671767
1148 4 0.250055 0.0501754 0.712783
1103 4 0.395709 0.0206253 0.732339
41 1 0.0608578 0.0893397 0.717371
44 3 0.0440743 0.112502 0.699999
42 3 0.0497852 0.0892771 0.748645
313 4 0.348594 0.903205 0.975454
407 4 0.00852344 0.111469 0.699945
45 3 0.0929511 0.0963288 0.717272
1496 4 0.112736 0.125203 0.733498
1494 2 0.134583 0.100694 0.748412
1334 4 0.187315 0.162854 0.754891
1075 4 0.200242 0.134225 0.742523
883 4 0.238071 0.14461 0.653865
1074 2 0.21394 0.149517 0.712877
1076 4 0.227638 0.16481 0.68323
1396 4 0.488806 0.155646 0.667168
289 4 0.478733 0.115513 0.688282
1348 4 0.368819 0.229771 0.685649
1347 2 0.396558 0.215185 0.703488
1349 4 0.424297 0.200599 0.721327
15 3 0.493452 0.157335 0.761328
1272 2 0.0214091 0.28827 0.759122
1273 4 0.0332308 0.307882 0.731265
1277 4 0.0293202 0.335169 0.703769
1275 2 0.0137554 0.363971 0.718888
712 4 0.0340884 0.484984 0.674553
711 2 0.0432758 0.457789 0.652726
383 4 0.233682 0.479903 0.68182
381 2 0.263201 0.49961 0.675441
382 4 0.29272 0.519316 0.669064
361 4 0.318024 0.464334 0.73809
278 4 0.490781 0.435166 0.724431
276 2 0.469311 0.417236 0.747191
1427 4 0.219127 0.54204 0.707833
1425 2 0.205262 0.540184 0.741071
1183 4 0.316573 0.543722 0.678046
1182 2 0.342787 0.545131 0.70277
1184 4 0.369 0.546539 0.727494
850 4 0.404298 0.541858 0.726641
1243 4 0.476001 0.575328 0.746297
1213 4 0.260355 0.621236 0.698076
1214 4 0.27949 0.600485 0.764446
527 4 0.254355 0.642582 0.66604
1212 2 0.269922 0.610861 0.731261
624 2 0.387624 0.612926 0.677515
625 4 0.404851 0.595494 0.703967
343 4 0.427742 0.602362 0.74982
926 4 0.0847869 0.675031 0.665118
924 2 0.0612267 0.672421 0.692295
925 4 0.0376662 0.669811 0.719469
904 4 0.118773 0.684874 0.661429
8 3 0.2979 0.794595 0.753874
139 4 0.460974 0.773933 0.738607
138 2 0.471979 0.771322 0.704366
167 4 0.269546 0.915301 0.686109
563 4 0.291903 0.890375 0.705683
561 2 0.28182 0.871171 0.734493
469 4 0.046368 0.937326 0.668411
824 4 0.0576759 0.968037 0.692883
822 2 0.0643319 0.995092 0.715779
1102 4 0.360495 0.959169 0.745931
1101 2 0.378102 0.989897 0.739135
1443 2 0.00932658 0.0697202 0.776911
1444 4 0.037632 0.0496092 0.786646
254 4 0.183153 0.0386719 0.762848
253 4 0.15756 0.977437 0.791077
252 2 0.170357 0.00805359 0.776963
47 3 0.216934 0.0398599 0.826509
48 3 0.270953 0.0407138 0.822081
1186 4 0.42206 0.015318 0.757104
1185 2 0.444857 0.0243281 0.783553
1187 4 0.467653 0.033338 0.810001
131 4 0.495071 0.0452928 0.788681
170 4 0.0303286 0.122213 0.743616
168 2 0.033294 0.146775 0.769851
1495 4 0.156431 0.0761851 0.763326
1332 2 0.178288 0.16795 0.78943
1474 4 0.496172 0.168577 0.799692
1440 2 0.00569655 0.221123 0.796897
1318 4 0.0748965 0.17611 0.800606
169 4 0.0362603 0.171338 0.796087
1333 4 0.169261 0.173047 0.82397
14 3 0.490646 0.210646 0.771273
1417 4 0.162325 0.323246 0.818229
861 2 0.439429 0.261776 0.824384
862 4 0.448743 0.262456 0.789553
1416 2 0.133187 0.343905 0.813265
1418 4 0.10405 0.364564 0.808301
885 2 0.289325 0.356627 0.818517
886 4 0.298599 0.372962 0.787734
362 4 0.303649 0.413898 0.7876
277 4 0.447841 0.399308 0.769951
360 2 0.310836 0.439116 0.762845
229 4 0.310018 0.451574 0.818096
851 4 0.420603 0.484912 0.767787
346 4 0.425819 0.486591 0.804646
1423 4 0.212214 0.557294 0.805307
1426 4 0.191398 0.538329 0.774309
1201 4 0.328702 0.575768 0.819545
849 2 0.41245 0.513385 0.747213
345 2 0.423549 0.505119 0.8355
593 4 0.107765 0.57284 0.832907
344 4 0.485229 0.628585 0.784593
342 2 0.456486 0.615474 0.767206
376 4 0.192294 0.72715 0.77734
375 2 0.220858 0.748303 0.783427
781 4 0.470074 0.705351 0.788803
869 4 0.0191764 0.815753 0.801908
377 4 0.249422 0.769456 0.789514
878 4 0.237416 0.82763 0.791061
7 3 0.283738 0.776121 0.802828
6 1 0.294486 0.802716 0.786159
9 3 0.272054 0.827332 0.789437
10 3 0.323427 0.812216 0.798446
876 2 0.216363 0.856618 0.786955
877 4 0.19531 0.885607 0.782849
1462 4 0.173019 0.889956 0.753877
562 4 0.271736 0.851967 0.763302
1267 4 0.474794 0.848566 0.814547
1492 4 0.40862 0.890388 0.814829
101 4 0.016589 0.983893 0.72229
823 4 0.0709877 0.0221444 0.738675
1193 4 0.0483455 0.994817 0.754576
1191 2 0.0375661 0.992461 0.788908
1463 4 0.168473 0.961192 0.764185
1461 2 0.170745 0.925574 0.759032
1491 2 0.403063 0.92172 0.797863
1493 4 0.397505 0.953052 0.780896
749 4 0.0502503 0.0668456 0.888794
747 2 0.043636 0.044839 0.861003
748 4 0.037023 0.0228323 0.833211
50 3 0.246596 0.00582309 0.855818
46 1 0.245379 0.0361108 0.843168
49 3 0.2466 0.0588021 0.867734
85 4 0.277406 0.0639886 0.846367
1503 2 0.107936 0.101623 0.895897
1504 4 0.0847046 0.114771 0.871652
84 2 0.298444 0.0932034 0.848457
91 4 0.310397 0.15176 0.877096
86 4 0.31948 0.122419 0.850549
1061 4 0.343194 0.12855 0.882931
1059 2 0.374117 0.127638 0.901463
1473 2 0.486259 0.15696 0.83236
1317 2 0.0824314 0.16322 0.833431
1319 4 0.0899659 0.15033 0.866257
1442 4 0.0310561 0.203943 0.815928
90 2 0.302672 0.159326 0.911499
1475 4 0.476345 0.145343 0.865027
863 4 0.430116 0.261096 0.859216
494 4 0.495503 0.17194 0.880213
488 4 0.146623 0.282118 0.90641
486 2 0.154298 0.287927 0.871656
487 4 0.161974 0.293734 0.836904
984 2 0.214794 0.26348 0.909818
986 4 0.250748 0.261154 0.908309
887 4 0.280049 0.340292 0.8493
81 2 0.362958 0.411752 0.881057
83 4 0.39678 0.400811 0.874986
559 4 0.481188 0.386177 0.879411
228 2 0.304573 0.457547 0.85324
230 4 0.299127 0.46352 0.888383
82 4 0.329138 0.422692 0.887127
1283 4 0.487942 0.518734 0.939231
1422 2 0.184139 0.574632 0.819857
753 2 0.251726 0.515555 0.899018
754 4 0.227078 0.541713 0.896068
1424 4 0.156066 0.59197 0.834406
1202 4 0.284366 0.531734 0.85556
1200 2 0.306534 0.553751 0.837553
755 4 0.276374 0.489397 0.901969
922 4 0.335558 0.480715 0.920682
1464 2 0.414386 0.552903 0.901683
347 4 0.42128 0.523649 0.866353
1465 4 0.430456 0.559253 0.870031
414 2 0.0160351 0.65498 0.887514
592 4 0.0631382 0.604592 0.879831
415 4 0.0433388 0.631432 0.88815
591 2 0.0854517 0.588716 0.856369
848 4 0.229159 0.57799 0.915747
846 2 0.249868 0.607493 0.91681
1221 2 0.337947 0.663033 0.866907
847 4 0.270576 0.636996 0.917874
68 4 0.308332 0.630774 0.915526
1223 4 0.322966 0.633463 0.881109
22 3 0.215605 0.725261 0.927679
1222 4 0.352927 0.692602 0.852706
782 4 0.470536 0.71316 0.860499
780 2 0.470304 0.709255 0.824651
349 4 0.449328 0.701975 0.88285
868 4 0.0363371 0.788672 0.866512
1381 4 0.0383213 0.797331 0.900586
867 2 0.027756 0.802212 0.83421
1380 2 0.0584661 0.82703 0.904125
428 4 0.20506 0.831715 0.872621
427 4 0.243127 0.77124 0.86285
426 2 0.224093 0.801477 0.867735
1382 4 0.0786108 0.856729 0.907663
889 4 0.141967 0.874705 0.934648
1431 2 0.134245 0.854691 0.87397
1433 4 0.169469 0.847034 0.87498
1432 4 0.0990197 0.862348 0.872961
542 4 0.179871 0.879179 0.886837
540 2 0.213106 0.878545 0.872858
541 4 0.246342 0.877909 0.858878
657 2 0.493931 0.901816 0.907811
1266 2 0.495758 0.875868 0.825297
19 3 0.10943 0.356566 0.989736
1415 4 0.390492 0.899513 0.910001
1054 4 0.0312048 0.971449 0.858139
1192 4 0.0267861 0.990104 0.82324
1413 2 0.387037 0.920668 0.881002
1414 4 0.38358 0.941821 0.852002
54 2 0.249462 0.286151 0.97943
193 4 0.160341 0.0333802 0.966419
192 2 0.162172 0.0657105 0.950551
533 4 0.159457 7.77769e-05 0.97997
1505 4 0.131168 0.0884745 0.920143
194 4 0.164004 0.0980415 0.934684
1060 4 0.40504 0.126727 0.919993
492 2 0.475496 0.162348 0.908641
493 4 0.455488 0.152757 0.937068
92 4 0.294948 0.166892 0.945901
1407 2 0.291956 0.186796 0.989992
1409 4 0.305027 0.199686 0.958952
1234 4 0.010448 0.269007 0.916889
292 4 0.396358 0.224354 0.984576
293 4 0.423294 0.166412 0.951125
291 2 0.409826 0.195383 0.967851
696 2 0.173385 0.638245 0.518451
644 4 0.115114 0.291095 0.927809
642 2 0.0990322 0.316967 0.947109
985 4 0.178839 0.265807 0.911328
1039 4 0.495712 0.224821 0.809135
178 4 0.310972 0.250657 0.96136
177 2 0.340309 0.244809 0.981496
158 4 0.489356 0.370082 0.529422
643 4 0.0829514 0.342839 0.966408
18 3 0.151033 0.385744 0.969185
16 1 0.134201 0.37786 0.997013
1366 4 0.235096 0.379351 0.97914
558 2 0.494714 0.381113 0.912454
141 2 0.146608 0.510752 0.968491
142 4 0.125125 0.525752 0.993268
143 4 0.16809 0.495751 0.943714
1281 2 0.480161 0.492849 0.915359
1282 4 0.472378 0.466964 0.891489
921 2 0.350379 0.510272 0.935075
1466 4 0.398317 0.546552 0.933335
923 4 0.365199 0.539828 0.949468
906 2 0.460721 0.567982 0.992701
695 4 0.205386 0.62868 0.96398
693 2 0.187066 0.653376 0.982818
66 2 0.319502 0.622166 0.948717
67 4 0.330671 0.613557 0.981906
350 4 0.436296 0.685789 0.951913
907 4 0.485047 0.562755 0.966599
551 4 0.0256222 0.565179 0.523528
24 3 0.250023 0.688827 0.948327
21 1 0.247194 0.719929 0.936304
52 4 0.267447 0.693504 0.978108
25 3 0.266375 0.723518 0.909884
348 2 0.442813 0.693882 0.917381
23 3 0.25588 0.742102 0.959816
637 4 0.376519 0.768571 0.986957
316 4 0.454573 0.773522 0.935789
315 2 0.480164 0.797748 0.943447
888 2 0.140128 0.892063 0.966203
890 4 0.13829 0.90942 0.997759
770 4 0.301588 0.905965 0.913299
768 2 0.288624 0.919294 0.944198
314 4 0.409988 0.871474 0.954825
312 2 0.379291 0.88734 0.96514
1515 2 0.467089 0.892867 0.98213
1517 4 0.448122 0.867617 0.999538
476 4 0.39546 0.296892 0.527717
1274 4 0.00958675 0.268657 0.786979
931 4 0.0728652 0.908018 0.987555
55 4 0.247157 0.299038 0.945828
627 2 0.00445099 0.447903 0.507057
1365 2 0.20854 0.361741 0.996025
1210 4 0.0597079 0.581318 0.523598
779 4 0.0458777 0.863888 0.508389
649 4 0.646331 0.0493714 0.0670975
1118 4 0.672391 0.0345469 0.0879649
648 2 0.66811 0.0532972 0.0386247
1436 4 0.933837 0.0110146 0.0314038
1434 2 0.928884 0.0389588 0.0536524
1435 4 0.92393 0.0669036 0.0759004
418 4 0.914951 0.08814 0.0450245
417 2 0.916553 0.120001 0.0282103
1196 4 0.687797 0.248599 0.0411563
1194 2 0.719387 0.231815 0.036599
1195 4 0.750978 0.215032 0.0320422
623 4 0.751685 0.168632 0.0831646
40 3 0.752998 0.25454 0.0231618
39 3 0.803368 0.274352 0.0187839
1064 4 0.508927 0.821186 0.455395
36 1 0.777674 0.260588 0.00234429
307 4 0.89403 0.298879 0.0598163
901 4 0.936392 0.333997 0.0208095
900 2 0.967169 0.324652 0.00450368
1100 4 0.720283 0.373335 0.022061
1098 2 0.718979 0.372726 0.0580935
759 2 0.81737 0.393843 0.0636733
760 4 0.810093 0.376977 0.0326416
1119 2 0.900806 0.426293 0.0943713
1121 4 0.934 0.413249 0.0997073
163 4 0.939245 0.368439 0.0134624
244 4 0.544956 0.400954 0.022735
1072 4 0.969381 0.41801 0.0892104
1071 2 0.996603 0.43299 0.0709063
74 4 0.665222 0.570319 0.0522622
72 2 0.654743 0.581015 0.0194568
1485 2 0.783252 0.551897 0.0426169
1487 4 0.780983 0.554798 0.0784902
1486 4 0.785522 0.548995 0.0067427
871 4 0.00431339 0.516067 0.0533698
870 2 0.985708 0.521278 0.0229211
496 4 0.955636 0.559517 0.000487717
512 4 0.559843 0.596258 0.0283429
510 2 0.535306 0.59068 0.00251068
1388 4 0.593442 0.599251 0.0440748
1386 2 0.577243 0.590091 0.0749633
500 4 0.514638 0.322081 0.423622
771 2 0.820263 0.630973 0.00533514
772 4 0.828874 0.597622 0.0160091
422 4 0.907114 0.63649 0.0785626
269 4 0.626646 0.675527 0.0113701
122 4 0.586418 0.732213 0.00210994
944 4 0.628718 0.704583 0.0660583
942 2 0.616172 0.730731 0.0446284
740 4 0.817723 0.764193 0.0506357
1085 4 0.994605 0.654112 0.252697
943 4 0.603625 0.756879 0.0231979
1289 4 0.679883 0.83063 0.065462
1287 2 0.663337 0.833895 0.0335878
738 2 0.819084 0.784248 0.0206965
1288 4 0.646791 0.837161 0.00171294
1017 2 0.756919 0.890868 0.0727145
1018 4 0.775755 0.885994 0.042352
1358 4 0.934932 0.986741 0.0565962
1356 2 0.917129 0.968968 0.0824338
1410 2 0.543928 0.0620314 0.104085
1412 4 0.519734 0.0850748 0.0905193
1411 4 0.568122 0.0389868 0.11765
1224 2 0.631509 0.0656397 0.134057
1225 4 0.642014 0.039946 0.157077
1226 4 0.621004 0.0913326 0.111037
1116 2 0.697634 0.0120126 0.100433
1002 2 0.99529 0.0207949 0.14788
1371 2 0.641701 0.155669 0.131709
1372 4 0.634946 0.122531 0.119199
898 4 0.954322 0.142598 0.144538
897 2 0.973367 0.129108 0.172028
1373 4 0.648458 0.188809 0.144221
1207 4 0.687281 0.180065 0.15942
622 4 0.789078 0.218842 0.118973
621 2 0.770381 0.193737 0.101069
236 4 0.828394 0.238958 0.165782
323 4 0.952022 0.158135 0.112054
321 2 0.934062 0.188251 0.120475
322 4 0.916102 0.218366 0.128896
1031 4 0.677998 0.307247 0.113133
1029 2 0.684678 0.303398 0.148361
235 4 0.818281 0.305257 0.13925
234 2 0.823337 0.272108 0.152516
308 4 0.849608 0.301921 0.116555
306 2 0.871819 0.3004 0.0881858
679 4 0.92397 0.249601 0.144216
678 2 0.953105 0.257476 0.163951
1099 4 0.717674 0.372117 0.0941261
195 2 0.837179 0.414747 0.136663
761 4 0.824648 0.410708 0.0947054
1120 4 0.867613 0.439337 0.0890339
205 4 0.940787 0.329413 0.10725
204 2 0.96585 0.348829 0.124433
1354 4 0.703187 0.476456 0.0785445
1353 2 0.695966 0.49826 0.106347
197 4 0.857063 0.410582 0.106868
238 4 0.576765 0.561883 0.134446
237 2 0.607878 0.573017 0.148884
239 4 0.638991 0.584151 0.163322
1387 4 0.561044 0.58093 0.105852
1355 4 0.688744 0.520062 0.134147
119 4 0.675445 0.596539 0.165342
865 4 0.755088 0.61652 0.161684
687 2 0.777509 0.63622 0.107017
688 4 0.777375 0.641284 0.142721
689 4 0.777643 0.631157 0.0713129
420 2 0.902604 0.622593 0.111532
421 4 0.898094 0.608695 0.1445
112 4 0.527179 0.702952 0.106584
111 2 0.559985 0.698351 0.0923361
650 4 0.689889 0.0572225 0.0101524
113 4 0.592792 0.69375 0.0780883
78 2 0.626348 0.728949 0.140423
80 4 0.629586 0.696308 0.12544
79 4 0.62311 0.761591 0.155405
991 4 0.791106 0.808902 0.160131
1057 4 0.771866 0.772712 0.15627
990 2 0.809937 0.806449 0.129475
992 4 0.82877 0.803995 0.0988196
1138 4 0.530448 0.88192 0.111698
1019 4 0.738083 0.895742 0.103077
720 2 0.792981 0.894807 0.140404
1379 4 0.836214 0.876752 0.100686
722 4 0.799388 0.888538 0.105474
1377 2 0.865345 0.895776 0.110167
1046 4 0.561109 0.947812 0.116763
1044 2 0.574222 0.948782 0.150342
1117 4 0.722876 0.989479 0.112901
721 4 0.786573 0.901074 0.175334
1378 4 0.894476 0.9148 0.119647
1357 4 0.899325 0.951194 0.108271
419 4 0.918156 0.15186 0.0113974
518 4 0.506555 0.0788497 0.206608