ITEM: TIMESTEP
955000
ITEM: NUMBER OF ATOMS
1520
ITEM: BOX BOUNDS pp pp pp
-6.9326749999999997e+00 6.9326749999999997e+00
-6.9326749999999997e+00 6.9326749999999997e+00
-6.9326749999999997e+00 6.9326749999999997e+00
ITEM: ATOMS id type xs ys zs
1459 4 0.326674 0.0578411 0.0636716
1095 2 0.432256 0.0864179 0.0339796
516 2 0.0185971 0.397131 0.423916
1374 2 0.0417012 0.102431 0.0109921
623 4 0.0384381 0.127183 0.150551
1097 4 0.45373 0.0984284 0.0603434
295 4 0.449279 0.118406 0.092877
1138 4 0.095563 0.218497 0.0581402
1137 2 0.0669266 0.20789 0.0389612
1139 4 0.03829 0.197284 0.0197822
433 4 0.291799 0.287527 0.0674605
432 2 0.315737 0.314141 0.0630975
434 4 0.339676 0.340756 0.0587349
582 2 0.0906418 0.390978 0.0278506
583 4 0.0649343 0.412783 0.0150405
1307 4 0.0451059 0.428695 0.0459069
23 3 0.178241 0.381407 0.0531888
21 1 0.167776 0.360964 0.028848
25 3 0.141736 0.374017 0.013671
575 4 0.473329 0.719289 0.432977
96 2 0.247517 0.400545 0.0108693
24 3 0.192451 0.355851 0.00682653
80 4 0.35955 0.334699 0.089223
78 2 0.378119 0.365573 0.0907747
79 4 0.396687 0.396448 0.0923268
33 3 0.464456 0.426084 0.0534837
1305 2 0.0543332 0.461625 0.0344687
1105 4 0.4568 0.406068 0.0250717
518 4 0.0353526 0.42692 0.412414
686 4 0.484935 0.423693 0.0248899
1064 4 0.44345 0.581678 0.0349612
75 2 0.0766152 0.591873 0.0651868
76 4 0.0650249 0.606507 0.0343337
826 4 0.074913 0.622608 0.00540957
825 2 0.0885938 0.654664 0.0146614
646 4 0.0104893 0.523815 0.372883
272 4 0.125485 0.674239 0.0548715
270 2 0.153596 0.664555 0.0752546
1159 4 0.389703 0.590715 0.113359
1062 2 0.431858 0.594257 0.0667071
114 2 0.0559552 0.733976 0.0207133
116 4 0.0894175 0.724688 0.0304375
827 4 0.10226 0.686722 0.0238954
1258 4 0.142728 0.686058 0.0199308
667 4 0.125858 0.713573 0.0445438
680 4 0.120871 0.717174 0.00446423
161 4 0.157297 0.723937 0.021066
830 4 0.092441 0.698031 0.0617293
159 2 0.188048 0.729053 0.0392009
131 4 0.258055 0.686523 0.0632272
160 4 0.218794 0.734168 0.0573361
548 4 0.34246 0.788889 0.0715936
985 4 0.345037 0.718625 0.00337385
1423 4 0.472907 0.452528 0.317415
459 2 0.501603 0.35196 0.301313
115 4 0.022495 0.743262 0.0109874
1421 4 0.229935 0.74357 0.105238
952 4 0.00538996 0.22036 0.245752
493 4 0.223317 0.858184 0.0565131
153 2 0.0174345 0.94325 0.0856092
155 4 0.0486459 0.958774 0.0948428
1213 4 0.0733589 0.934182 0.0839138
622 4 0.0434099 0.0558871 0.140863
1458 2 0.316941 0.0258235 0.0502341
1036 4 0.36793 0.0433794 0.158961
1035 2 0.377232 0.0776691 0.15279
736 4 0.360923 0.0216352 0.186221
621 2 0.040924 0.091535 0.145707
629 4 0.286384 0.17657 0.120567
627 2 0.26733 0.174365 0.151104
294 2 0.418794 0.128891 0.109038
296 4 0.38831 0.139375 0.125198
1037 4 0.386534 0.111959 0.146619
867 2 0.332462 0.235739 0.0728525
869 4 0.362072 0.21636 0.065913
584 4 0.116349 0.369174 0.0406614
1486 4 0.0490203 0.26826 0.158659
868 4 0.302853 0.255117 0.0797918
348 2 0.329256 0.359907 0.151626
350 4 0.336515 0.328083 0.166953
349 4 0.321998 0.391731 0.136297
35 3 0.461632 0.415312 0.106632
32 3 0.441207 0.3804 0.0711167
31 1 0.445996 0.412525 0.0778818
46 1 0.0218987 0.500764 0.103531
48 3 0.00931683 0.478479 0.0819674
47 3 0.0415655 0.484936 0.125057
34 3 0.416258 0.427784 0.0795312
1442 4 0.456845 0.44218 0.128542
1440 2 0.479383 0.469203 0.120653
77 4 0.088205 0.577239 0.0960398
97 4 0.254688 0.433775 0.0229004
319 4 0.090265 0.60366 0.116839
50 3 0.0394848 0.523306 0.0873649
1441 4 0.501921 0.496225 0.112764
318 2 0.0886632 0.609378 0.152407
829 4 0.040016 0.668948 0.101793
229 4 0.262995 0.565436 0.162729
228 2 0.230554 0.573528 0.176238
271 4 0.181713 0.654864 0.0956478
130 4 0.212823 0.640101 0.0948616
441 2 0.284783 0.621541 0.139252
442 4 0.255441 0.601417 0.133381
443 4 0.314126 0.641665 0.145123
1158 2 0.356553 0.602096 0.121843
1160 4 0.323404 0.613477 0.130327
1063 4 0.420265 0.606835 0.0984529
112 4 0.440394 0.682423 0.196383
828 2 0.0662345 0.683489 0.0817539
449 4 0.0430542 0.698982 0.223942
666 2 0.119154 0.742272 0.0653273
129 2 0.235439 0.663312 0.0790443
546 2 0.350069 0.755725 0.0835368
547 4 0.357677 0.72256 0.0954804
603 2 0.00960144 0.840643 0.143986
668 4 0.11246 0.770977 0.0861014
788 4 0.0992249 0.79623 0.107511
786 2 0.127964 0.79281 0.129024
1419 2 0.244104 0.768252 0.0830921
787 4 0.156703 0.789391 0.150536
1420 4 0.258273 0.792934 0.060946
605 4 0.0367278 0.841395 0.167735
266 4 0.0530628 0.862189 0.193973
264 2 0.0852398 0.849577 0.183676
492 2 0.240719 0.852505 0.0875823
494 4 0.258121 0.846826 0.118652
1199 4 0.292632 0.850711 0.118706
1197 2 0.309032 0.882593 0.122569
1198 4 0.325433 0.914475 0.126433
325 4 0.408883 0.868299 0.1726
218 4 0.494927 0.830922 0.162428
217 4 0.44455 0.882476 0.164887
216 2 0.469739 0.8567 0.163658
1212 2 0.0952845 0.924659 0.110914
1214 4 0.11721 0.915136 0.137914
1460 4 0.307208 0.993806 0.0367965
634 4 0.492077 0.917411 0.171591
1346 4 0.215494 0.0266295 0.259645
628 4 0.248277 0.172161 0.181641
307 4 0.177246 0.165673 0.158385
306 2 0.188956 0.199232 0.164469
308 4 0.200667 0.232792 0.170554
907 4 0.487065 0.211745 0.227853
1487 4 0.042529 0.321065 0.207352
1485 2 0.0457749 0.294663 0.183005
1426 4 0.277207 0.25895 0.251286
1171 4 0.0335808 0.979671 0.442628
1170 2 0.0434453 0.945024 0.444252
141 2 0.478082 0.312444 0.482271
974 4 0.0926799 0.396071 0.203866
725 4 0.103226 0.322453 0.177427
723 2 0.115256 0.354874 0.187655
724 4 0.127285 0.387294 0.197884
753 2 0.241653 0.371098 0.194611
755 4 0.247201 0.394426 0.167677
754 4 0.236105 0.34777 0.221545
252 2 0.319551 0.368901 0.259362
253 4 0.309102 0.388179 0.287991
275 4 0.260076 0.0116658 0.00549317
1029 2 0.328763 0.473238 0.178803
254 4 0.329999 0.349622 0.230734
1030 4 0.301439 0.488796 0.196461
1031 4 0.356086 0.457681 0.161144
887 4 0.0115712 0.486225 0.146675
1337 4 0.0152702 0.369742 0.160771
478 4 0.195937 0.540994 0.191449
477 2 0.198799 0.528578 0.225184
479 4 0.201659 0.516162 0.258919
73 4 0.224179 0.547358 0.273414
624 2 0.268066 0.512056 0.273734
625 4 0.240756 0.513014 0.250205
320 4 0.0870619 0.615096 0.187976
230 4 0.198112 0.581618 0.189748
72 2 0.232413 0.581949 0.267411
545 4 0.473454 0.66387 0.194578
543 2 0.48682 0.637138 0.214755
447 2 0.0148678 0.682593 0.208536
1468 4 0.230566 0.779847 0.200516
640 4 0.247507 0.655901 0.25268
778 4 0.307768 0.725265 0.234269
777 2 0.276549 0.73495 0.219038
113 4 0.370172 0.665991 0.197142
400 4 0.331179 0.749208 0.228757
399 2 0.346769 0.736445 0.258665
111 2 0.405283 0.674207 0.196763
1467 2 0.20277 0.769277 0.180118
1469 4 0.174974 0.758707 0.159721
779 4 0.245329 0.744634 0.203809
265 4 0.117416 0.836965 0.17338
324 2 0.395581 0.895282 0.152716
326 4 0.382279 0.922265 0.132832
1433 4 0.459052 0.913672 0.173261
1141 4 0.129021 0.943658 0.161991
1140 2 0.141339 0.954787 0.194004
1142 4 0.153656 0.965915 0.226018
1344 2 0.19109 0.0127374 0.237022
737 4 0.423987 0.988759 0.174231
735 2 0.392455 0.00519705 0.180226
1432 4 0.432985 0.971413 0.207728
1431 2 0.446019 0.942543 0.190494
692 4 0.228054 0.0409516 0.285853
1489 4 0.132188 0.944228 0.253933
562 4 0.482795 0.0672269 0.350003
691 4 0.210736 0.108977 0.302413
690 2 0.219395 0.0749636 0.294133
1297 4 0.183704 0.131361 0.30681
1296 2 0.191159 0.166195 0.301204
1298 4 0.198615 0.201029 0.295599
1235 4 0.104409 0.267385 0.341031
1470 2 0.166854 0.306266 0.280484
1471 4 0.133811 0.302548 0.266528
1472 4 0.199896 0.309983 0.29444
1427 4 0.233682 0.296664 0.294701
1425 2 0.255445 0.277807 0.272993
1046 4 0.28406 0.339762 0.314987
713 4 0.453794 0.335886 0.334876
711 2 0.428914 0.309902 0.337378
693 2 0.17473 0.420076 0.317003
694 4 0.168388 0.389299 0.299313
1044 2 0.317381 0.32935 0.324023
461 4 0.467005 0.359581 0.308048
972 2 0.0781264 0.407736 0.234729
973 4 0.0635731 0.4194 0.265592
695 4 0.181072 0.450854 0.334693
626 4 0.295377 0.511099 0.297263
1194 2 0.332397 0.506956 0.31236
1196 4 0.346437 0.532414 0.333695
258 2 0.42168 0.449282 0.332796
259 4 0.443092 0.467984 0.310611
1100 4 0.0857086 0.568458 0.331451
1195 4 0.318355 0.4815 0.291024
1027 4 0.438927 0.564609 0.347681
1099 4 0.11524 0.594799 0.271154
1098 2 0.100474 0.581628 0.301303
74 4 0.240648 0.616541 0.261407
1051 4 0.353689 0.65746 0.340261
1085 4 0.142667 0.661636 0.32074
1083 2 0.160789 0.683402 0.298419
641 4 0.21428 0.716286 0.273925
1084 4 0.178913 0.705168 0.276099
639 2 0.230894 0.686094 0.263302
401 4 0.362357 0.723683 0.288574
1399 4 0.415055 0.760064 0.352303
1398 2 0.393211 0.76217 0.323688
1400 4 0.371368 0.764275 0.295073
638 4 0.065543 0.813148 0.313961
1255 4 0.343211 0.775028 0.308027
636 2 0.0604197 0.81679 0.278452
637 4 0.0552968 0.820431 0.242943
1488 2 0.108904 0.960524 0.276132
1490 4 0.0856219 0.97682 0.298329
455 4 0.0594103 0.965235 0.312337
1345 4 0.166686 0.998844 0.214398
874 4 0.392111 0.06763 0.391357
22 3 0.159161 0.331863 0.0422488
412 4 0.333289 0.151412 0.34488
413 4 0.357703 0.127509 0.281364
411 2 0.345496 0.139461 0.313122
1270 4 0.0848436 0.193973 0.408456
1269 2 0.0599856 0.190197 0.382605
1271 4 0.0351276 0.18642 0.356755
1512 2 0.308342 0.169722 0.377588
1513 4 0.3395 0.181149 0.363482
1514 4 0.277183 0.158295 0.391694
398 4 0.380972 0.170226 0.387166
1233 2 0.0694303 0.276115 0.340211
1234 4 0.0344517 0.284846 0.339391
815 4 0.125783 0.359443 0.382771
833 4 0.156486 0.33393 0.381568
813 2 0.104061 0.337156 0.400989
831 2 0.190789 0.334653 0.370469
832 4 0.225092 0.335376 0.359371
451 4 0.242878 0.314245 0.384729
450 2 0.261894 0.332395 0.409415
712 4 0.404033 0.283919 0.339879
959 4 0.0113373 0.242798 0.486032
550 4 0.0999364 0.381637 0.364454
1045 4 0.350703 0.318939 0.333059
823 4 0.349263 0.362424 0.340123
822 2 0.379815 0.381238 0.336514
645 2 0.0185071 0.490514 0.361607
647 4 0.0265252 0.457213 0.35033
551 4 0.0520132 0.43553 0.36377
549 2 0.0759744 0.408583 0.364112
409 4 0.157225 0.435423 0.356529
408 2 0.169358 0.452971 0.385603
410 4 0.18149 0.470518 0.414678
304 4 0.384965 0.483547 0.414415
824 4 0.410367 0.400052 0.332905
260 4 0.400266 0.43058 0.35498
1172 4 0.0533109 0.910376 0.445877
286 4 0.289425 0.588309 0.389601
1026 2 0.439487 0.534138 0.328403
1028 4 0.440046 0.503668 0.309126
45 3 0.149234 0.638852 0.427354
41 1 0.141287 0.653795 0.399205
44 3 0.135536 0.630989 0.375399
42 3 0.166457 0.673174 0.389636
287 4 0.246645 0.530469 0.394693
285 2 0.268035 0.559389 0.392147
1050 2 0.361846 0.622801 0.334546
1052 4 0.370004 0.588143 0.328831
185 4 0.381291 0.732279 0.380151
344 4 0.491306 0.74327 0.372193
1092 2 0.0202622 0.771907 0.346197
1093 4 0.0502574 0.79059 0.339011
1254 2 0.307576 0.769519 0.308417
1256 4 0.27194 0.764009 0.308805
342 2 0.467171 0.758873 0.350411
1451 4 0.133271 0.947838 0.412142
392 4 0.156805 0.936641 0.380297
872 4 0.399611 0.925986 0.333327
870 2 0.41296 0.89376 0.342477
871 4 0.426308 0.861534 0.351628
454 4 0.0713793 0.939438 0.378615
453 2 0.065395 0.952336 0.345476
390 2 0.191121 0.934807 0.391225
1333 4 0.257195 0.95541 0.399933
391 4 0.225438 0.932973 0.402153
980 4 0.303894 0.881468 0.342502
1334 4 0.30584 0.988849 0.358495
1332 2 0.281517 0.97213 0.379214
978 2 0.337077 0.894895 0.346861
979 4 0.37026 0.908321 0.351221
1134 2 0.365887 0.0123637 0.376418
1135 4 0.344403 0.99215 0.355676
1136 4 0.387371 0.0325774 0.39716
965 4 0.361619 0.0676695 0.480525
875 4 0.408689 0.130655 0.422254
873 2 0.400399 0.0991427 0.406806
506 4 0.183344 0.158902 0.415193
963 2 0.338428 0.0928354 0.491893
504 2 0.218992 0.164268 0.416096
987 2 0.494324 0.335164 0.0767172
1306 4 0.0635611 0.494556 0.0230302
608 4 0.0903542 0.167388 0.47028
989 4 0.463226 0.347391 0.063159
505 4 0.25464 0.169634 0.416998
396 2 0.388284 0.195933 0.411375
784 4 0.42907 0.224604 0.480496
783 2 0.457031 0.203104 0.472993
785 4 0.484992 0.181603 0.46549
805 4 0.389735 0.706596 0.47452
957 2 0.000444751 0.27503 0.474082
660 2 0.43479 0.511614 0.496079
814 4 0.0823407 0.314869 0.419208
452 4 0.280909 0.350545 0.434101
397 4 0.395595 0.221641 0.435584
142 4 0.469261 0.347103 0.486894
1133 4 0.167866 0.40952 0.444453
1131 2 0.154545 0.440336 0.457621
148 4 0.163154 0.378997 0.466724
147 2 0.194213 0.372339 0.449651
149 4 0.225271 0.365681 0.432579
511 4 0.307356 0.332216 0.45197
510 2 0.290258 0.322476 0.482189
658 4 0.493299 0.443451 0.284666
1449 2 0.109805 0.922647 0.422875
156 2 0.389408 0.383307 0.489262
158 4 0.381566 0.402739 0.459914
1072 4 0.406323 0.423879 0.438673
1132 4 0.141225 0.471151 0.470789
303 2 0.376492 0.505974 0.441353
1274 4 0.997831 0.0771759 0.216038
1071 2 0.441722 0.425847 0.432082
1073 4 0.477121 0.427816 0.425491
473 4 0.360627 0.554779 0.495423
1272 2 0.0057595 0.0463342 0.199116
305 4 0.368018 0.5284 0.468292
662 4 0.453931 0.499783 0.467899
1114 4 0.0531457 0.667301 0.465692
43 3 0.114092 0.672786 0.403642
1113 2 0.0781538 0.655421 0.442586
1115 4 0.103162 0.643541 0.41948
1417 4 0.196043 0.637132 0.49606
606 2 0.103226 0.198886 0.48222
1416 2 0.197513 0.670958 0.483649
1418 4 0.198983 0.704784 0.471238
570 2 0.305457 0.720466 0.500383
572 4 0.313692 0.739756 0.471048
184 4 0.410516 0.701343 0.438379
183 2 0.395904 0.716811 0.409265
544 4 0.500188 0.610407 0.234934
343 4 0.443034 0.774476 0.328632
1474 4 0.053782 0.886781 0.479492
1473 2 0.0271039 0.865285 0.490746
1450 4 0.0863386 0.897456 0.433607
1376 4 0.0133621 0.101884 0.0332857
1189 4 0.00655862 0.207453 0.00893355
751 4 0.0105332 0.750937 0.0419391
1363 4 0.400338 0.994515 0.00696097
1096 4 0.410783 0.0744079 0.00761595
143 4 0.486904 0.277785 0.477648
895 4 0.0342985 0.00865976 0.546027
710 4 0.0646316 0.0203961 0.565368
689 4 0.243378 0.0651899 0.594929
1437 2 0.447902 0.0846689 0.595334
1438 4 0.437371 0.0502898 0.598091
359 4 0.365406 0.114173 0.583962
425 4 0.44001 0.150053 0.600162
1439 4 0.458434 0.119048 0.592577
616 4 0.0332985 0.230996 0.507662
614 4 0.475403 0.612869 0.954435
607 4 0.116099 0.230385 0.49416
210 2 0.168286 0.183529 0.536213
211 4 0.141638 0.205123 0.547347
1012 4 0.391978 0.188258 0.518318
424 4 0.403003 0.187673 0.551002
1011 2 0.368161 0.161961 0.511866
423 2 0.421506 0.168863 0.575582
617 4 0.0309461 0.241312 0.579003
615 2 0.0321218 0.236154 0.543332
1041 2 0.472985 0.928543 0.909761
1500 2 0.130857 0.355166 0.551812
1501 4 0.150294 0.349916 0.521895
1007 4 0.13738 0.440757 0.550216
157 4 0.39725 0.363875 0.51861
947 4 0.411932 0.364375 0.55254
945 2 0.447649 0.359493 0.553477
946 4 0.483366 0.354612 0.554413
194 4 0.262015 0.517379 0.578122
192 2 0.229548 0.52463 0.59204
193 4 0.19708 0.53188 0.605958
1404 2 0.38885 0.547877 0.575784
1406 4 0.41369 0.559303 0.552272
612 2 0.486445 0.615282 0.920191
1089 2 0.120614 0.619292 0.572521
1090 4 0.137112 0.623103 0.540683
1429 4 0.283073 0.622559 0.55672
1430 4 0.221305 0.593001 0.53408
1428 2 0.252189 0.60778 0.5454
661 4 0.41565 0.523444 0.524259
1413 2 0.0983002 0.746152 0.546307
1414 4 0.0889957 0.714282 0.560384
56 4 0.293577 0.72666 0.557928
54 2 0.310368 0.754795 0.572992
374 4 0.0268739 0.72775 0.762815
804 2 0.416278 0.700305 0.498106
1415 4 0.107605 0.778021 0.532229
806 4 0.442822 0.694015 0.521691
929 4 0.443715 0.810844 0.544583
927 2 0.459986 0.782167 0.529978
1475 4 0.000426297 0.84379 0.502
894 2 0.0562855 0.980082 0.546567
896 4 0.0782721 0.951504 0.547108
716 4 0.111725 0.942095 0.551772
714 2 0.144699 0.956509 0.549458
715 4 0.177673 0.970923 0.547144
708 2 0.0851898 0.0438439 0.583479
688 4 0.19024 0.049946 0.548608
687 2 0.216809 0.0575678 0.571769
293 4 0.438243 0.00713858 0.613775
292 4 0.40789 0.0303358 0.674949
291 2 0.423067 0.0187372 0.644362
709 4 0.105747 0.0672918 0.601589
761 4 0.258987 0.129823 0.678578
760 4 0.249347 0.141733 0.608102
759 2 0.254167 0.135778 0.64334
357 2 0.351003 0.138702 0.606128
797 4 0.372214 0.156775 0.640933
358 4 0.3366 0.16323 0.628293
598 4 0.24083 0.179038 0.552243
597 2 0.259129 0.188884 0.581715
795 2 0.387402 0.170986 0.670392
847 4 0.394078 0.8894 0.964332
599 4 0.277428 0.198731 0.611187
532 4 0.455122 0.365928 0.679906
860 4 0.0496567 0.409247 0.66427
876 2 0.0893635 0.488286 0.615187
878 4 0.0909521 0.523714 0.621726
877 4 0.0877743 0.452859 0.608647
1006 4 0.0886522 0.419021 0.598741
1005 2 0.113016 0.429889 0.574478
137 4 0.152398 0.447018 0.582
135 2 0.172054 0.469211 0.602532
136 4 0.191709 0.491405 0.623062
1237 4 0.392145 0.445308 0.657042
283 4 0.484648 0.481383 0.588251
1238 4 0.374706 0.515199 0.653473
1236 2 0.383426 0.480254 0.655258
527 4 0.0529362 0.533515 0.624012
935 4 0.10517 0.55372 0.690244
525 2 0.0642399 0.567758 0.623698
1313 4 0.28502 0.54872 0.588893
1311 2 0.31401 0.535693 0.605932
1405 4 0.36401 0.536451 0.599295
1312 4 0.342999 0.522665 0.622972
526 4 0.0755441 0.602 0.623384
1091 4 0.104115 0.615481 0.60436
474 2 0.0470136 0.700897 0.671256
476 4 0.0577313 0.678415 0.645177
122 4 0.214355 0.717469 0.679761
120 2 0.229716 0.746853 0.665581
55 4 0.32716 0.782929 0.588055
235 4 0.359653 0.787943 0.612009
234 2 0.339434 0.792402 0.641534
236 4 0.319215 0.796861 0.67106
928 4 0.476257 0.75349 0.515374
439 4 0.329159 0.911892 0.587572
440 4 0.35586 0.844926 0.589659
438 2 0.34251 0.878409 0.588615
67 4 0.335954 0.903959 0.664155
1220 4 0.455821 0.968795 0.583134
1144 4 0.333723 0.977549 0.699436
1143 2 0.340461 0.980234 0.664112
1145 4 0.347198 0.98292 0.628787
1219 4 0.439936 0.901494 0.603628
848 4 0.330339 0.857234 0.954121
1218 2 0.447878 0.935145 0.593381
472 4 0.29226 0.556837 0.518298
555 2 0.0124831 0.00347695 0.75252
630 2 0.139175 0.0342615 0.683527
632 4 0.14052 0.067525 0.697389
631 4 0.13783 0.000998182 0.669666
1022 4 0.383817 0.0913674 0.668415
444 2 0.469461 0.0184143 0.709287
445 4 0.440466 0.0273943 0.689816
1493 4 0.0520412 0.0783231 0.741914
1491 2 0.0590545 0.109864 0.725901
1492 4 0.0660677 0.141404 0.709889
1020 2 0.39706 0.0855062 0.70144
1502 4 0.111419 0.360417 0.581729
796 4 0.40259 0.185199 0.69985
749 4 0.412162 0.22441 0.688683
531 2 0.464492 0.331807 0.686859
748 4 0.473507 0.261926 0.683119
747 2 0.442835 0.243169 0.685901
533 4 0.473864 0.297685 0.693812
858 2 0.0840606 0.41204 0.67471
242 4 0.115391 0.391566 0.713367
240 2 0.116429 0.365964 0.738743
859 4 0.118464 0.414833 0.68515
898 4 0.21905 0.346517 0.747935
897 2 0.196028 0.372979 0.756306
429 2 0.0520675 0.467164 0.762084
431 4 0.0415776 0.495158 0.741917
5 3 0.439725 0.386019 0.729449
3 3 0.482653 0.418209 0.737801
933 2 0.07521 0.538247 0.703027
934 4 0.0452502 0.522774 0.71581
1287 2 0.305523 0.571565 0.6893
1288 4 0.312647 0.53622 0.688698
1289 4 0.298398 0.606911 0.689903
1112 4 0.197879 0.670971 0.706869
1110 2 0.197705 0.642779 0.729354
535 4 0.302758 0.643187 0.695593
534 2 0.333129 0.644628 0.714981
475 4 0.0362962 0.723379 0.697334
458 4 0.024999 0.738589 0.724886
312 2 0.0498593 0.825306 0.683393
121 4 0.245077 0.776237 0.651402
799 4 0.264167 0.8093 0.655861
212 4 0.194935 0.161936 0.525079
314 4 0.0185862 0.841423 0.675479
942 2 0.02785 0.932505 0.72765
798 2 0.233082 0.826269 0.66266
800 4 0.201997 0.843237 0.669458
247 4 0.185414 0.874911 0.666473
246 2 0.166504 0.896194 0.688606
89 4 0.360612 0.834665 0.742567
66 2 0.333364 0.874978 0.685458
68 4 0.330775 0.845997 0.706761
1246 4 0.0778692 0.930181 0.705657
943 4 0.0614201 0.94199 0.736788
1245 2 0.0958436 0.960314 0.697329
1247 4 0.113817 0.990446 0.689003
248 4 0.147593 0.917476 0.710738
446 4 0.498455 0.00943442 0.728757
556 4 0.0469973 0.994482 0.757838
1339 4 0.074198 0.00544843 0.780058
1370 4 0.162319 0.119792 0.782266
170 4 0.189093 0.0967985 0.797458
168 2 0.207985 0.0661672 0.799748
1368 2 0.150419 0.0956966 0.75822
1369 4 0.13852 0.0716006 0.734174
1021 4 0.410304 0.079645 0.734465
1117 4 0.0170683 0.249727 0.746168
1128 2 0.0344128 0.230023 0.823178
1130 4 0.0147135 0.200219 0.828086
571 4 0.297222 0.701176 0.529717
1226 4 0.481344 0.199639 0.84367
1129 4 0.0541119 0.259827 0.81827
905 4 0.0479906 0.295986 0.804761
903 2 0.0793526 0.313187 0.800187
839 4 0.125534 0.341761 0.831181
904 4 0.110715 0.330389 0.795614
241 4 0.117467 0.340363 0.764118
899 4 0.173005 0.399443 0.764677
1268 4 0.473044 0.358243 0.751564
4 3 0.463849 0.386161 0.778099
512 4 0.273161 0.312735 0.512408
430 4 0.062558 0.439171 0.782251
1182 2 0.0530999 0.438555 0.84733
1184 4 0.0459093 0.434235 0.812258
566 4 0.262639 0.516983 0.811715
882 2 0.377386 0.407776 0.750757
564 2 0.278227 0.540548 0.834126
2 3 0.435111 0.42902 0.761494
883 4 0.412186 0.398849 0.747654
1 1 0.455315 0.404658 0.751547
884 4 0.342585 0.416703 0.75386
565 4 0.293813 0.56411 0.856537
1503 2 0.39952 0.644399 0.825987
1505 4 0.389839 0.676317 0.81228
671 4 0.489278 0.51138 0.758807
579 2 0.0861833 0.662745 0.828814
580 4 0.0533114 0.673536 0.818645
581 4 0.119055 0.651954 0.838983
207 2 0.167117 0.578055 0.784625
209 4 0.143813 0.550578 0.7831
208 4 0.190422 0.605532 0.78615
1111 4 0.197531 0.614588 0.75184
536 4 0.363501 0.646069 0.73437
502 4 0.340766 0.651602 0.760912
1504 4 0.409201 0.61248 0.839694
372 2 0.0223031 0.701234 0.786824
373 4 0.0177326 0.674719 0.810834
663 2 0.138762 0.729732 0.795438
665 4 0.120678 0.756354 0.779169
501 2 0.332241 0.677857 0.784116
356 4 0.328886 0.724863 0.833114
1227 2 0.0719763 0.846774 0.835825
146 4 0.0964492 0.851428 0.772316
145 4 0.133994 0.789991 0.776501
144 2 0.115221 0.82071 0.774408
87 2 0.335152 0.819152 0.762853
88 4 0.309691 0.803639 0.78314
354 2 0.32244 0.760109 0.829048
1228 4 0.0945507 0.843892 0.807851
782 4 0.152228 0.885883 0.834994
1340 4 0.105104 0.947504 0.809873
1338 2 0.0896512 0.976476 0.794965
781 4 0.12627 0.953091 0.838285
780 2 0.139249 0.919487 0.83664
169 4 0.226877 0.035536 0.802039
835 4 0.4547 0.995606 0.76106
834 2 0.457381 0.96823 0.78438
836 4 0.460062 0.940855 0.807699
1104 2 0.4618 0.408147 0.989419
954 2 0.0464054 0.0451142 0.832025
956 4 0.0243152 0.0724134 0.840222
955 4 0.0684958 0.0178151 0.823827
1081 4 0.357111 0.0422528 0.896189
1080 2 0.32763 0.0228452 0.903577
109 4 0.22071 0.202151 0.888237
127 4 0.354944 0.0783682 0.888659
126 2 0.36749 0.110214 0.900013
1225 4 0.429281 0.151012 0.832422
1224 2 0.455313 0.175325 0.838046
1257 2 0.15788 0.671917 0.990428
1347 2 0.078017 0.379482 0.931529
1348 4 0.0799256 0.344293 0.923878
837 2 0.148054 0.315428 0.841175
838 4 0.170574 0.289096 0.851167
277 4 0.205451 0.29209 0.86419
276 2 0.228526 0.288744 0.891699
1053 2 0.192071 0.383797 0.838217
1054 4 0.166759 0.405626 0.851752
1055 4 0.217384 0.361969 0.824682
982 4 0.410402 0.349348 0.855213
981 2 0.37914 0.367278 0.856469
983 4 0.347877 0.385208 0.857725
1183 4 0.0602899 0.442877 0.882402
166 4 0.0560369 0.485098 0.886598
165 2 0.0326641 0.512386 0.889686
376 4 0.212339 0.481845 0.842224
375 2 0.242264 0.480264 0.822165
377 4 0.27219 0.478686 0.802106
164 4 0.194829 0.629486 0.898527
528 2 0.13482 0.708513 0.901256
664 4 0.156845 0.703111 0.811706
529 4 0.155911 0.703324 0.872469
503 4 0.323716 0.704111 0.80732
1229 4 0.0494017 0.849656 0.863798
355 4 0.315995 0.795356 0.824983
652 4 0.28397 0.78383 0.824274
651 2 0.259817 0.81057 0.825672
1076 4 0.0208822 0.838125 0.885511
1375 4 0.0700404 0.102978 0.988699
653 4 0.235663 0.83731 0.82707
1357 4 0.333006 0.905362 0.884449
1280 4 0.194804 0.0166175 0.806013
1279 4 0.194863 0.976765 0.866124
1278 2 0.194834 0.996691 0.836069
1356 2 0.326063 0.938388 0.897154
1082 4 0.298148 0.00343785 0.910966
1358 4 0.319118 0.971415 0.90986
1043 4 0.455979 0.926793 0.87801
224 4 0.434326 0.730913 0.947985
84 2 0.015248 0.108473 0.881819
846 2 0.362209 0.873317 0.959226
273 2 0.251579 0.0413694 0.986894
274 4 0.243083 0.071073 0.968296
1364 4 0.412026 0.0583434 0.975483
1362 2 0.406182 0.0264287 0.991222
1042 4 0.489991 0.930293 0.941512
419 4 0.492686 0.4324 0.700551
1223 4 0.142788 0.102925 0.987919
1221 2 0.171198 0.120667 0.974559
1222 4 0.199609 0.138408 0.9612
128 4 0.380036 0.142059 0.911366
586 4 0.373958 0.167516 0.936428
1446 2 0.00313959 0.21073 0.915785
323 4 0.131468 0.278179 0.976116
321 2 0.153716 0.250949 0.96812
108 2 0.216556 0.214293 0.921938
110 4 0.212403 0.226435 0.955638
322 4 0.175964 0.223719 0.960124
585 2 0.389594 0.198237 0.947019
587 4 0.40523 0.228958 0.957609
1351 4 0.442629 0.239779 0.949928
1352 4 0.470874 0.286996 0.903296
1350 2 0.456751 0.263387 0.926612
1349 4 0.0761089 0.41467 0.93918
1447 4 0.0102946 0.239658 0.93609
278 4 0.251601 0.285398 0.919209
854 4 0.267331 0.312242 0.932855
1303 4 0.334289 0.820266 0.954089
167 4 0.00929125 0.539673 0.892773
101 4 0.275767 0.426412 0.935026
852 2 0.276252 0.347178 0.93336
853 4 0.285173 0.382115 0.933866
222 2 0.460722 0.750533 0.962772
1106 4 0.466799 0.410225 0.953767
85 4 0.0331808 0.106068 0.850626
1070 4 0.0563036 0.495092 0.987107
100 4 0.212937 0.409958 0.903667
99 2 0.244352 0.418185 0.919346
1068 2 0.0803532 0.512274 0.966448
1069 4 0.104403 0.529456 0.945788
1241 4 0.150867 0.519173 0.999714
1239 2 0.171171 0.545157 0.98512
1240 4 0.191474 0.571141 0.970526
163 4 0.200849 0.638167 0.969871
162 2 0.197839 0.633827 0.934199
1259 4 0.173043 0.657778 0.960923
1395 2 0.236303 0.834794 0.95795
678 2 0.129513 0.747687 0.987291
530 4 0.11373 0.713702 0.930042
465 2 0.247312 0.738384 0.98253
467 4 0.249251 0.703209 0.974822
1002 2 0.463696 0.673669 0.980495
1004 4 0.45715 0.708911 0.984439
679 4 0.138156 0.778199 0.970125
1304 4 0.280212 0.785074 0.986322
1396 4 0.258741 0.807644 0.965688
1003 4 0.470241 0.638427 0.976552
1302 2 0.307251 0.80267 0.970206
986 4 0.3503 0.76035 0.944783
984 2 0.347669 0.739487 0.974078
1397 4 0.213864 0.861943 0.950213
515 4 0.496785 0.997144 0.76286
313 4 0.0811324 0.809188 0.691307
1382 4 0.0185922 0.970899 0.86439
790 4 0.497169 0.116 0.744727
335 4 0.00775468 0.820474 0.528591
98 4 0.240346 0.367315 0.998838
223 4 0.487119 0.770154 0.977559
466 4 0.245373 0.773559 0.990238
964 4 0.315236 0.118001 0.503261
1013 4 0.344345 0.135664 0.505413
471 2 0.326443 0.555809 0.506861
1156 4 0.550934 0.992634 0.0109265
1034 4 0.585144 0.999895 0.0235302
1155 2 0.54371 0.0276648 0.00633709
1157 4 0.536487 0.062696 0.00174791
107 4 0.840949 0.156302 0.00718171
1154 4 0.9461 0.117587 0.107012
105 2 0.860373 0.157759 0.0375291
1152 2 0.961695 0.109892 0.0754209
1153 4 0.97729 0.102196 0.0438297
189 2 0.781919 0.523685 0.0254376
596 4 0.5702 0.254183 0.0176846
595 4 0.536419 0.288418 0.0714295
594 2 0.553309 0.2713 0.0445573
1008 2 0.609868 0.146821 0.0761724
1009 4 0.578977 0.132257 0.0645967
386 4 0.689319 0.221338 0.0270395
384 2 0.66519 0.200827 0.0442878
1190 4 0.949999 0.249323 0.0247284
1293 2 0.845217 0.334031 0.0530158
1295 4 0.862073 0.302152 0.0527412
740 4 0.991006 0.304411 0.04996
738 2 0.973996 0.2855 0.0755225
1457 4 0.560886 0.31247 0.460932
58 4 0.632427 0.320587 0.0206939
57 2 0.650915 0.351359 0.0241156
940 4 0.760633 0.430822 0.0829955
59 4 0.669404 0.382129 0.0275373
939 2 0.788342 0.415496 0.0657419
1294 4 0.828361 0.365908 0.05329
941 4 0.816051 0.400168 0.0484877
684 2 0.509738 0.446902 0.036996
499 4 0.683888 0.529897 0.104907
500 4 0.726935 0.489313 0.0636559
498 2 0.705412 0.509605 0.0842818
524 4 0.64932 0.583859 0.0505275
855 2 0.678359 0.584138 0.0868904
857 4 0.650179 0.606211 0.091256
885 2 0.993788 0.496244 0.176404
1066 4 0.877923 0.563687 0.0141818
1215 2 0.719205 0.599381 0.00738218
1216 4 0.726356 0.584725 0.0395454
923 4 0.810718 0.662688 0.0191175
863 4 0.800176 0.644095 0.0519801
861 2 0.796392 0.632229 0.0858231
389 4 0.868294 0.592041 0.0301005
388 4 0.934915 0.614307 0.0137448
387 2 0.901605 0.603174 0.0219227
756 2 0.643321 0.719473 0.072647
758 4 0.64878 0.746727 0.0496735
750 2 0.986085 0.728221 0.0556021
752 4 0.961637 0.705505 0.0692656
263 4 0.864845 0.842322 0.0544019
1150 4 0.871366 0.812357 0.0818225
1366 4 0.508204 0.438243 0.416909
1319 4 0.589015 0.833451 0.0298959
1094 4 0.990267 0.753223 0.353382
261 2 0.861569 0.871838 0.033944
262 4 0.858293 0.901353 0.0134867
958 4 0.989552 0.307263 0.46213
1033 4 0.598612 0.929807 0.0339135
1032 2 0.591878 0.964851 0.028722
1342 4 0.609343 0.925542 0.0688085
154 4 0.986223 0.927726 0.0763748
1498 4 0.840218 0.986168 0.148698
226 4 0.838508 0.0189113 0.132802
1010 4 0.64076 0.161384 0.0877491
682 4 0.557959 0.122556 0.162051
1464 2 0.815663 0.154194 0.118973
1466 4 0.841687 0.133741 0.104662
1203 2 0.89315 0.132283 0.136932
1205 4 0.928066 0.123273 0.137345
1204 4 0.858235 0.141292 0.136519
1277 4 0.570411 0.24726 0.15132
385 4 0.64106 0.180317 0.061535
673 4 0.783691 0.210754 0.100015
674 4 0.781978 0.241771 0.165106
672 2 0.782834 0.226263 0.132561
1465 4 0.789639 0.174648 0.133286
1015 4 0.900396 0.294175 0.126554
766 4 0.980223 0.23379 0.195205
765 2 0.9729 0.25178 0.164821
988 4 0.525422 0.322936 0.0902751
191 4 0.814547 0.537492 0.0187195
1275 2 0.580317 0.22772 0.122676
1379 4 0.811273 0.360481 0.157935
1016 4 0.883684 0.274498 0.0592107
172 4 0.892743 0.266059 0.146736
1014 2 0.89204 0.284336 0.0928824
739 4 0.956986 0.26659 0.101085
190 4 0.74929 0.509878 0.0321557
1378 4 0.742965 0.360729 0.134794
1377 2 0.777119 0.360605 0.146365
187 4 0.87483 0.439585 0.00285001
1336 4 0.958364 0.407451 0.137504
1335 2 0.986817 0.388596 0.149137
685 4 0.53454 0.470112 0.0491017
697 4 0.817292 0.48772 0.130389
696 2 0.784918 0.47186 0.131283
913 4 0.898233 0.480817 0.180718
914 4 0.849449 0.507367 0.13471
912 2 0.873841 0.494092 0.157714
773 4 0.563127 0.527041 0.0868867
856 4 0.706539 0.562065 0.0825241
698 4 0.752545 0.455999 0.132178
771 2 0.59838 0.521445 0.0920111
843 2 0.699254 0.719581 0.166907
844 4 0.703519 0.71075 0.201609
772 4 0.633634 0.515847 0.0971352
862 4 0.792608 0.620363 0.119665
1394 4 0.942035 0.582153 0.215273
757 4 0.637862 0.692218 0.0956204
845 4 0.694988 0.728412 0.132205
1107 2 0.736743 0.81838 0.153256
1109 4 0.754843 0.797817 0.129805
395 4 0.781811 0.78134 0.145773
1149 2 0.900074 0.793994 0.0936145
1151 4 0.928783 0.775632 0.105407
470 4 0.954031 0.788742 0.129032
1343 4 0.582713 0.85852 0.0694886
1409 4 0.573392 0.847649 0.10344
1407 2 0.588989 0.830381 0.130989
1341 2 0.596028 0.892031 0.0691486
403 4 0.693361 0.858976 0.188264
1108 4 0.718643 0.838944 0.176706
402 2 0.688742 0.881445 0.16044
415 4 0.682362 0.940363 0.142722
633 2 0.518319 0.923582 0.147641
635 4 0.544563 0.929753 0.123691