ITEM: TIMESTEP
123500
ITEM: NUMBER OF ATOMS
1520
ITEM: BOX BOUNDS pp pp pp
-6.9326749999999997e+00 6.9326749999999997e+00
-6.9326749999999997e+00 6.9326749999999997e+00
-6.9326749999999997e+00 6.9326749999999997e+00
ITEM: ATOMS id type xs ys zs
989 4 0.157776 0.0292209 0.0213502
610 4 0.332543 0.066131 0.0342781
547 4 0.494521 0.0751626 0.0696168
39 3 0.0710996 0.181919 0.0176059
943 4 0.143979 0.126119 0.0305051
942 2 0.163113 0.156477 0.0340715
611 4 0.309905 0.1331 0.0485718
609 2 0.321224 0.0996157 0.0414249
922 4 0.300014 0.127231 0.0861859
764 4 0.426436 0.166026 0.0538314
761 4 0.188778 0.25498 0.0494693
759 2 0.167177 0.248792 0.0776744
944 4 0.182247 0.186834 0.0376378
762 2 0.398967 0.188258 0.0610142
763 4 0.371498 0.21049 0.0681971
1238 4 0.387326 0.242228 0.062507
527 4 0.495644 0.983238 0.403923
1284 2 0.324181 0.343945 0.043239
727 4 0.2941 0.306456 0.00157248
1237 4 0.378644 0.301378 0.0221641
1236 2 0.382985 0.271803 0.0423355
1285 4 0.352561 0.328033 0.0276881
1288 4 0.17882 0.377499 0.0213787
1287 2 0.193565 0.409041 0.030764
1286 4 0.295802 0.359856 0.0587897
1420 4 0.348641 0.390403 0.0121847
850 4 0.121978 0.439001 0.0568515
701 4 0.19665 0.453762 0.00858686
1289 4 0.208309 0.440584 0.0401493
786 2 0.30542 0.45542 0.00374176
787 4 0.300674 0.475702 0.0331783
1042 4 0.477591 0.26816 0.3339
1419 2 0.372502 0.415412 0.00190864
346 4 0.429772 0.460228 0.0333157
345 2 0.442249 0.493434 0.0398026
1260 2 0.0822315 0.565427 0.0801759
145 4 0.307782 0.50574 0.0482407
144 2 0.329878 0.525142 0.0273662
146 4 0.351974 0.544543 0.00649169
949 4 0.436103 0.546032 0.0233969
347 4 0.454726 0.52664 0.0462897
1136 4 0.484365 0.513872 0.0367313
1261 4 0.05072 0.577364 0.0673334
461 4 0.194183 0.667365 0.00748624
668 4 0.0707347 0.683942 0.0645983
1513 4 0.147864 0.721773 0.073389
1512 2 0.167303 0.696265 0.0568999
1514 4 0.186741 0.670757 0.0404111
512 4 0.0297279 0.823307 0.0561002
510 2 0.00910933 0.828463 0.026968
108 2 0.241221 0.808533 0.0417704
110 4 0.207784 0.814989 0.0299079
109 4 0.274657 0.802077 0.053633
1352 4 0.278638 0.760468 0.0296776
1037 4 0.0166987 0.847011 0.0772031
1082 4 0.158318 0.83878 0.0268317
739 4 0.267041 0.828337 0.079732
1240 4 0.298976 0.883614 0.0127717
1239 2 0.333745 0.877654 0.00528814
590 4 0.490347 0.45165 0.116373
52 4 0.217688 0.950167 0.0307854
51 2 0.224208 0.939468 0.0646002
658 4 0.272075 0.13889 0.103735
921 2 0.31928 0.122633 0.116321
1102 4 0.37259 0.125754 0.158086
923 4 0.338547 0.118034 0.146455
1101 2 0.405597 0.130074 0.14422
1103 4 0.438604 0.134393 0.130353
760 4 0.145577 0.242604 0.10588
659 4 0.222192 0.190958 0.102228
657 2 0.247133 0.164924 0.102982
4 3 0.157562 0.325097 0.126151
5 3 0.143154 0.272917 0.130447
1 1 0.164939 0.295553 0.140029
1159 4 0.140686 0.273491 0.171013
2 3 0.195272 0.286369 0.130216
497 4 0.309847 0.298385 0.140461
502 4 0.151545 0.342902 0.0937312
501 2 0.171692 0.371439 0.102683
503 4 0.191839 0.399976 0.111635
340 4 0.417951 0.318213 0.176072
745 4 0.999408 0.48295 0.14232
849 2 0.10909 0.427418 0.0884766
851 4 0.096202 0.415836 0.120102
96 2 0.234493 0.452131 0.110995
98 4 0.220156 0.42036 0.101751
97 4 0.24883 0.483903 0.120239
1123 4 0.281654 0.480236 0.138692
1122 2 0.294019 0.506968 0.1595
223 4 0.354444 0.452523 0.177978
222 2 0.370587 0.484028 0.184851
1262 4 0.113743 0.553491 0.0930187
1170 2 0.457239 0.607657 0.149566
1171 4 0.469009 0.60448 0.115628
666 2 0.0532299 0.676892 0.0953274
667 4 0.0357251 0.669841 0.126056
180 2 0.27726 0.742335 0.149497
181 4 0.263516 0.72525 0.120868
124 4 0.30984 0.71516 0.135956
123 2 0.34392 0.703568 0.138108
125 4 0.377999 0.691976 0.140261
738 2 0.290395 0.829033 0.1072
740 4 0.31375 0.829729 0.134668
880 4 0.437658 0.917949 0.427209
154 4 0.472567 0.783617 0.142961
130 4 0.145581 0.905122 0.104186
131 4 0.19641 0.882494 0.150078
129 2 0.170996 0.893808 0.127132
353 4 0.456711 0.880441 0.0960544
351 2 0.479007 0.905915 0.108478
53 4 0.230729 0.92877 0.0984151
335 4 0.244957 0.91374 0.12783
333 2 0.271756 0.924453 0.14945
141 2 0.212974 0.0840546 0.225781
143 4 0.188738 0.0613933 0.239906
643 4 0.297401 0.999852 0.226765
464 4 0.0458012 0.10248 0.189221
462 2 0.0551915 0.121994 0.218055
142 4 0.23721 0.106716 0.211657
971 4 0.180458 0.164251 0.197939
970 4 0.113312 0.189405 0.20571
969 2 0.146885 0.176828 0.201825
1160 4 0.0913046 0.225969 0.19348
274 4 0.210967 0.177983 0.232555
354 2 0.302489 0.221981 0.222977
355 4 0.317607 0.24199 0.197063
3 3 0.164707 0.298224 0.173386
1158 2 0.115995 0.24973 0.182247
332 4 0.186271 0.276687 0.191541
330 2 0.204469 0.290026 0.219671
495 2 0.316069 0.324118 0.164946
165 2 0.487313 0.25354 0.228374
263 4 0.219786 0.430993 0.215134
496 4 0.32229 0.349851 0.189431
341 4 0.364189 0.34866 0.213278
339 2 0.39107 0.333437 0.194675
583 4 0.355321 0.404771 0.222954
582 2 0.320331 0.408173 0.214922
913 4 0.502852 0.383187 0.256407
912 2 0.485075 0.413374 0.247856
1405 4 0.0159391 0.450683 0.24615
262 4 0.284158 0.461754 0.204569
261 2 0.251972 0.446374 0.209852
584 4 0.285341 0.411575 0.206889
1267 4 0.435895 0.48772 0.264371
1124 4 0.306384 0.5337 0.180307
224 4 0.38673 0.515534 0.191724
1268 4 0.422264 0.524194 0.203663
929 4 0.337713 0.586354 0.189909
1266 2 0.42908 0.505957 0.234017
986 4 0.0598719 0.669599 0.185457
984 2 0.0839009 0.644631 0.175474
561 2 0.00987549 0.602861 0.250486
455 4 0.999474 0.602864 0.187987
985 4 0.10793 0.619664 0.165492
133 4 0.0803757 0.684332 0.27653
371 4 0.222227 0.671154 0.231041
369 2 0.211813 0.638624 0.242608
927 2 0.372634 0.588561 0.198632
928 4 0.407554 0.590769 0.207355
1172 4 0.445469 0.610834 0.183504
182 4 0.291005 0.75942 0.178126
367 4 0.369635 0.687414 0.175214
366 2 0.401083 0.69955 0.188028
1372 4 0.452681 0.721075 0.17341
1371 2 0.48839 0.717023 0.176392
368 4 0.43253 0.711685 0.200841
1297 4 0.468615 0.816788 0.260963
1444 4 0.172099 0.878039 0.17517
1443 2 0.200501 0.873602 0.196944
1445 4 0.228902 0.869166 0.218717
1138 4 0.394007 0.833473 0.215903
1137 2 0.363664 0.850713 0.224985
1139 4 0.333321 0.867953 0.234068
642 2 0.312863 0.974807 0.205931
334 4 0.298555 0.935167 0.171071
644 4 0.328326 0.949763 0.185096
463 4 0.0645818 0.14151 0.246889
1121 4 0.0656974 0.144356 0.283371
1235 4 0.220473 0.132016 0.319722
275 4 0.221362 0.128359 0.283848
273 2 0.216164 0.153171 0.258201
127 4 0.339807 0.123887 0.28443
126 2 0.318313 0.14578 0.265479
128 4 0.296819 0.167673 0.246529
1119 2 0.0379538 0.167356 0.282057
356 4 0.287372 0.201972 0.24889
389 4 0.171489 0.323918 0.314339
25 3 0.217207 0.294667 0.286332
331 4 0.222668 0.303365 0.247801
22 3 0.231784 0.337503 0.25718
21 1 0.218342 0.327489 0.28581
756 2 0.321537 0.301064 0.332319
757 4 0.324291 0.265108 0.332237
166 4 0.455012 0.250784 0.244168
387 2 0.146932 0.349721 0.308723
388 4 0.122374 0.375525 0.303108
24 3 0.187405 0.340023 0.288204
23 3 0.237187 0.338667 0.311104
1350 2 0.303331 0.750248 0.00546559
1348 4 0.352304 0.424275 0.282334
1347 2 0.338035 0.426849 0.315352
226 4 0.460248 0.459061 0.276954
914 4 0.467298 0.443562 0.239306
225 2 0.476192 0.479338 0.302154
56 4 0.232574 0.566792 0.333169
616 4 0.0462345 0.586582 0.301322
563 4 0.0167796 0.584531 0.280764
134 4 0.125363 0.629344 0.288944
132 2 0.102869 0.656838 0.282737
370 4 0.201399 0.606096 0.254177
54 2 0.234285 0.587486 0.303686
55 4 0.235995 0.60818 0.274203
117 2 0.319676 0.664757 0.299202
119 4 0.34662 0.651406 0.319106
364 4 0.317586 0.631216 0.361276
430 4 0.403767 0.607472 0.314586
118 4 0.292732 0.678109 0.279297
1107 2 0.251055 0.817395 0.327941
1108 4 0.286785 0.817059 0.332805
1153 4 0.406186 0.768522 0.311523
1298 4 0.405131 0.787104 0.278
1296 2 0.436873 0.801946 0.269481
625 4 0.0700181 0.886083 0.324876
624 2 0.0932445 0.906356 0.306169
626 4 0.116471 0.926628 0.287461
1519 4 0.476275 0.97415 0.27843
1518 2 0.452496 0.977677 0.305309
1161 2 0.384351 0.0518445 0.365487
1163 4 0.348802 0.0545358 0.370912
1162 4 0.4199 0.0491532 0.360062
1233 2 0.20644 0.13981 0.352014
1234 4 0.192407 0.147603 0.384306
1442 4 0.168975 0.150129 0.412887
1499 4 0.471624 0.1135 0.412523
386 4 0.261891 0.992707 0.459706
940 4 0.319016 0.923573 0.436557
1318 4 0.189158 0.303486 0.365748
1317 2 0.183126 0.27882 0.391353
758 4 0.318783 0.33702 0.332402
258 2 0.0841225 0.379135 0.344329
260 4 0.0521649 0.364733 0.352797
1283 4 0.0430743 0.390379 0.375247
259 4 0.11608 0.393537 0.335861
163 4 0.243635 0.362848 0.336686
162 2 0.268947 0.388497 0.335323
164 4 0.294259 0.414146 0.33396
1281 2 0.0399494 0.42423 0.387277
1349 4 0.323765 0.429423 0.34837
210 2 0.494253 0.49487 0.390737
227 4 0.492136 0.499616 0.327354
1206 2 0.0215905 0.510229 0.395519
40 3 0.0398712 0.224226 0.00404898
523 4 0.210983 0.555063 0.358655
1150 4 0.341427 0.540183 0.403954
365 4 0.341058 0.56735 0.385187
1149 2 0.368652 0.525953 0.385067
1151 4 0.395876 0.511722 0.36618
212 4 0.487409 0.52711 0.376103
615 2 0.0506383 0.603693 0.332759
617 4 0.0550419 0.620803 0.364195
379 4 0.0590011 0.599503 0.394163
522 2 0.219382 0.579777 0.383536
363 2 0.329322 0.599282 0.373232
524 4 0.227782 0.604491 0.408417
431 4 0.430075 0.619767 0.380603
429 2 0.416921 0.613619 0.347595
1409 4 0.431184 0.743332 0.389881
1154 4 0.390496 0.759271 0.381308
1407 2 0.418123 0.71492 0.407842
1408 4 0.405061 0.686509 0.425803
1109 4 0.215325 0.817731 0.323078
565 4 0.279214 0.774854 0.403614
564 2 0.312016 0.783907 0.391678
566 4 0.344818 0.792959 0.379742
1152 2 0.398341 0.763897 0.346416
811 4 0.416745 0.819433 0.41255
299 4 0.256521 0.935083 0.351555
297 2 0.275246 0.904268 0.351107
298 4 0.29397 0.873453 0.350659
881 4 0.379836 0.875964 0.417436
879 2 0.408747 0.896957 0.422322
1520 4 0.428716 0.981204 0.332189
525 2 0.464337 0.965761 0.407772
526 4 0.43303 0.948284 0.411621
1063 4 0.104853 0.0650704 0.471154
1062 2 0.137054 0.0594686 0.455918
1067 4 0.308737 0.0623518 0.435985
385 4 0.280172 0.0481584 0.417367
384 2 0.271031 0.0204327 0.438537
439 4 0.495629 0.00676921 0.427569
440 4 0.493915 0.039331 0.491899
438 2 0.494772 0.0230497 0.459733
1064 4 0.169255 0.0538667 0.440681
1440 2 0.174547 0.172662 0.440484
1065 2 0.304048 0.0972899 0.443585
1066 4 0.299359 0.132228 0.451184
905 4 0.0224322 0.245957 0.457656
903 2 0.00654176 0.221877 0.436021
993 2 0.0512488 0.213374 0.499138
1441 4 0.180119 0.195195 0.468082
1330 4 0.21242 0.20917 0.480144
1329 2 0.235573 0.228564 0.499847
995 4 0.0523084 0.243059 0.478691
1319 4 0.177095 0.254153 0.416958
1057 4 0.278633 0.335664 0.474132
1056 2 0.299245 0.327635 0.445652
1058 4 0.319856 0.319607 0.417171
1282 4 0.0368248 0.458082 0.399307
1208 4 0.0498058 0.492105 0.408779
641 4 0.091818 0.434373 0.473098
639 2 0.105635 0.466974 0.479932
380 4 0.068017 0.568849 0.458821
1501 4 0.00757313 0.00754894 0.0582446
640 4 0.119452 0.499575 0.486767
29 3 0.116925 0.542575 0.497922
28 3 0.10221 0.572735 0.454582
26 1 0.124311 0.569523 0.479504
27 3 0.154608 0.565678 0.466543
606 2 0.270316 0.581319 0.449582
608 4 0.280096 0.556721 0.474071
1435 4 0.290932 0.524512 0.49208
434 4 0.497195 0.579453 0.432403
692 4 0.428854 0.54033 0.477261
691 4 0.493181 0.544476 0.444911
690 2 0.461018 0.542403 0.461086
378 2 0.0635094 0.584176 0.426492
1120 4 0.0102102 0.190355 0.280743
607 4 0.260536 0.605917 0.425092
491 4 0.427339 0.656207 0.490601
562 4 0.00297086 0.621192 0.220209
535 4 0.151749 0.740557 0.470183
534 2 0.121772 0.722089 0.462392
536 4 0.0917947 0.703621 0.454601
106 4 0.307522 0.651565 0.424432
105 2 0.3156 0.68226 0.44155
708 2 0.380131 0.707019 0.487031
710 4 0.344389 0.703586 0.490378
107 4 0.323677 0.712954 0.458668
709 4 0.415872 0.710452 0.483683
1054 4 0.0473601 0.829883 0.44423
810 2 0.443106 0.82467 0.436592
486 2 0.023503 0.906415 0.483176
939 2 0.318592 0.931304 0.471777
1053 2 0.0672331 0.839877 0.472613
518 4 0.20847 0.840104 0.437251
516 2 0.211774 0.841751 0.473123
839 4 0.143925 0.978664 0.456638
350 4 0.444043 0.842521 0.482591
812 4 0.469468 0.829908 0.460635
488 4 0.0567326 0.920002 0.486581
837 2 0.128887 0.946842 0.448786
838 4 0.113848 0.915021 0.440933
1052 4 0.0435486 0.374369 0.492779
656 4 0.354236 0.0697671 0.00334229
422 4 0.492407 0.176724 0.209995
38 3 0.0182018 0.174451 0.00533783
404 4 0.481263 0.206106 0.00444493
726 2 0.258607 0.312807 0.0010246
997 4 0.0910953 0.00778209 0.568392
1300 4 0.360057 0.0609731 0.549139
1299 2 0.356596 0.0252963 0.553088
329 4 0.182926 0.1482 0.56221
240 2 0.239083 0.116807 0.555635
242 4 0.219267 0.146298 0.5618
327 2 0.180872 0.169458 0.533153
241 4 0.258899 0.087316 0.549471
888 2 0.348924 0.130402 0.579181
889 4 0.381648 0.120541 0.567679
571 4 0.39408 0.11378 0.534052
572 4 0.46214 0.132171 0.549257
570 2 0.42811 0.122975 0.541654
1157 4 0.033098 0.151585 0.53865
1155 2 0.0234603 0.169563 0.568388
994 4 0.0501887 0.183689 0.519585
328 4 0.178817 0.190716 0.504096
1331 4 0.258727 0.247958 0.519549
631 4 0.267733 0.246719 0.553385
361 4 0.466874 0.942825 0.972003
630 2 0.267742 0.282621 0.556769
632 4 0.267752 0.318523 0.560154
941 4 0.318169 0.939034 0.506998
926 4 0.153629 0.545636 0.500957
1050 2 0.0698394 0.396559 0.503586
869 4 0.301002 0.388742 0.569944
82 4 0.416993 0.337309 0.535508
81 2 0.426658 0.371803 0.539648
83 4 0.436325 0.406297 0.543789
382 4 0.109612 0.434565 0.547604
1051 4 0.0961301 0.41875 0.514393
381 2 0.143396 0.446137 0.552618
383 4 0.17718 0.45771 0.557632
925 4 0.16818 0.480394 0.528039
867 2 0.295546 0.420008 0.552826
868 4 0.290091 0.451275 0.535707
1434 2 0.27623 0.497531 0.510957
1436 4 0.261527 0.470551 0.529833
338 4 0.450121 0.428118 0.515148
336 2 0.481571 0.445536 0.512322
1271 4 0.0729875 0.585232 0.583019
1270 4 0.104023 0.576027 0.518569
1269 2 0.0885054 0.58063 0.550794
924 2 0.160904 0.513015 0.514498
135 2 0.373757 0.594514 0.557938
137 4 0.399424 0.598535 0.532929
136 4 0.348091 0.590493 0.582948
490 4 0.434913 0.590514 0.519389
1177 4 0.248698 0.777811 0.57139
1176 2 0.243758 0.799001 0.542632
1178 4 0.238819 0.82019 0.513875
1055 4 0.0871064 0.849872 0.500996
1090 4 0.109349 0.840582 0.5323
1089 2 0.0973451 0.840428 0.566305
517 4 0.215077 0.843398 0.508995
1453 4 0.325156 0.900577 0.503208
1454 4 0.363414 0.872996 0.557772
1452 2 0.344285 0.886786 0.53049
348 2 0.451423 0.853353 0.516186
766 4 0.464405 0.896864 0.532633
349 4 0.458803 0.864185 0.54978
1392 2 0.0654294 0.965861 0.525698
1394 4 0.0536114 0.932931 0.516958
1393 4 0.0772474 0.99879 0.534438
1401 2 0.310324 0.967358 0.590426
1301 4 0.353136 0.989619 0.557036
1402 4 0.317591 0.986898 0.561002
765 2 0.478151 0.929294 0.524901
64 4 0.462863 0.954112 0.587593
996 2 0.0682377 0.0242486 0.590905
998 4 0.0453801 0.040715 0.613417
853 4 0.058175 0.0396654 0.647811
814 4 0.436768 0.0429988 0.601295
813 2 0.451901 0.0108609 0.607502
736 4 0.301912 0.161123 0.61454
735 2 0.285444 0.134636 0.632641
890 4 0.3162 0.140262 0.590683
737 4 0.268976 0.10815 0.650743
1156 4 0.0138228 0.187541 0.598126
677 4 0.0148236 0.200707 0.638756
713 4 0.171118 0.249625 0.610105
711 2 0.155336 0.256611 0.641768
428 4 0.375233 0.26787 0.654066
1201 4 0.392602 0.290029 0.6325
1200 2 0.411544 0.263202 0.617603
1202 4 0.430486 0.236375 0.602707
669 2 0.998898 0.406287 0.62506
1213 4 0.435968 0.410472 0.606093
360 2 0.454988 0.914034 0.953831
670 4 0.0316307 0.421382 0.626114
1212 2 0.434572 0.430085 0.636322
883 4 0.221326 0.546916 0.613017
882 2 0.239539 0.565468 0.638007
884 4 0.257752 0.58402 0.662998
1028 4 0.0633565 0.618437 0.591207
1026 2 0.0793651 0.607495 0.621611
1027 4 0.0953736 0.596553 0.652015
188 4 0.27247 0.672022 0.616229
186 2 0.29904 0.655874 0.634496
391 4 0.338162 0.60759 0.670237
187 4 0.32561 0.639725 0.652764
1438 4 0.238972 0.662855 0.623785
1437 2 0.224223 0.683268 0.597975
1439 4 0.209474 0.703681 0.572165
714 2 0.0225564 0.829309 0.616547
1309 4 0.412828 0.755206 0.658195
695 4 0.419586 0.811573 0.607811
694 4 0.468852 0.783854 0.652601
693 2 0.444219 0.797713 0.630206
716 4 0.0568404 0.840223 0.618969
1091 4 0.0853417 0.840275 0.600309
73 4 0.429285 0.917869 0.626209
74 4 0.43617 0.848779 0.606693
72 2 0.432727 0.883325 0.616451
1403 4 0.303057 0.947817 0.61985
815 4 0.467035 0.978723 0.61371
178 4 0.419239 0.984043 0.672813
63 2 0.491432 0.943919 0.607094
852 2 0.079588 0.050143 0.674868
854 4 0.101001 0.0606208 0.701926
638 4 0.157384 0.0394576 0.701
636 2 0.145359 0.0155807 0.725201
1477 4 0.098157 0.0843986 0.730271
300 2 0.297571 0.0787392 0.701356
302 4 0.29441 0.0561084 0.673459
1476 2 0.103508 0.117812 0.717808
1478 4 0.108858 0.151225 0.705345
662 4 0.198511 0.155948 0.707714
301 4 0.300732 0.10137 0.729254
772 4 0.122633 0.171789 0.679665
771 2 0.14796 0.194358 0.691895
773 4 0.173286 0.216928 0.704126
660 2 0.220753 0.176465 0.727329
1191 2 0.422912 0.226539 0.751465
680 4 0.0565092 0.307751 0.744875
1022 4 0.135525 0.291515 0.700459
712 4 0.139555 0.263596 0.673431
1020 2 0.169565 0.301062 0.707569
1021 4 0.203606 0.310609 0.714678
284 4 0.232448 0.329375 0.70213
427 4 0.331286 0.313035 0.689144
282 2 0.268369 0.332545 0.702266
426 2 0.35326 0.290453 0.671605
88 4 0.386523 0.320656 0.693626
1193 4 0.443406 0.252794 0.737642
170 4 0.153977 0.362925 0.723431
168 2 0.176244 0.3846 0.741728
283 4 0.304291 0.335715 0.702403
87 2 0.401432 0.345366 0.715248
89 4 0.416341 0.370077 0.736869
169 4 0.198511 0.406275 0.760025
1214 4 0.433175 0.449697 0.666551
392 4 0.285077 0.558939 0.674335
305 4 0.0644474 0.619854 0.737028
303 2 0.0840466 0.621994 0.706834
304 4 0.103646 0.624133 0.676639
390 2 0.31162 0.583264 0.672286
321 2 0.27823 0.622212 0.743264
323 4 0.273483 0.651405 0.722634
1464 2 0.0191295 0.707153 0.745966
1466 4 0.0416249 0.710439 0.717973
215 4 0.289354 0.684818 0.726216
213 2 0.272632 0.716557 0.722552
1515 2 0.497323 0.70298 0.682585
1517 4 0.464759 0.705143 0.697925
472 4 0.108899 0.826422 0.708675
471 2 0.126878 0.816741 0.738397
122 4 0.176122 0.765345 0.698764
120 2 0.210324 0.771908 0.689407
121 4 0.244526 0.77847 0.68005
214 4 0.255909 0.748295 0.718888
1310 4 0.367584 0.745559 0.713525
1308 2 0.390206 0.750383 0.68586
1182 2 0.333864 0.803062 0.721816
1183 4 0.346242 0.769687 0.727588
1184 4 0.321486 0.836437 0.716044
1197 2 0.476924 0.873076 0.750827
1313 4 0.241133 0.984984 0.732131
651 2 0.29814 0.970899 0.710413
652 4 0.264325 0.982116 0.704837
653 4 0.331956 0.959682 0.715988
979 4 0.353319 0.946616 0.741654
179 4 0.468582 0.961584 0.72038
177 2 0.44391 0.972813 0.696597
1008 2 0.195291 0.0639826 0.833011
1009 4 0.177625 0.0744861 0.80338
478 4 0.147254 0.0883171 0.822348
477 2 0.144775 0.123155 0.81337
479 4 0.142296 0.157992 0.804392
92 4 0.457855 0.136649 0.798333
90 2 0.427127 0.151845 0.787143
661 4 0.242995 0.196983 0.746943
1192 4 0.402417 0.200284 0.765287
91 4 0.396398 0.167042 0.775952
1130 4 0.347726 0.242086 0.786095
947 4 0.481875 0.20791 0.747904
271 4 0.0251636 0.290916 0.7409
678 2 0.0724909 0.282748 0.765365
679 4 0.0884728 0.257746 0.785855
769 4 0.0977468 0.248728 0.818121
1128 2 0.362332 0.269605 0.804255
785 4 0.273963 0.381912 0.820117
790 4 0.2774 0.421027 0.818435
612 2 0.411759 0.4667 0.859571
614 4 0.392225 0.455027 0.831596
1253 4 0.501578 0.470921 0.766836
1189 4 0.219829 0.936524 0.996795
481 4 0.0443493 0.631086 0.766969
480 2 0.0146266 0.624611 0.747603
1127 4 0.0775029 0.630677 0.784779
1125 2 0.0737359 0.640527 0.819264
322 4 0.282976 0.593018 0.763895
99 2 0.475919 0.613012 0.832111
767 4 0.491897 0.961723 0.517169
1321 4 0.489112 0.753315 0.815876
418 4 0.0119633 0.8088 0.760193
230 4 0.156025 0.844294 0.76592
473 4 0.144858 0.80706 0.768119
228 2 0.17217 0.829694 0.794671
229 4 0.188314 0.815094 0.823421
419 4 0.0184157 0.865957 0.803703
417 2 0.0151895 0.837378 0.781948
469 4 0.162539 0.901018 0.828527
1199 4 0.454081 0.852209 0.769351
637 4 0.133334 0.991704 0.749402
114 2 0.139777 0.949521 0.795345
116 4 0.141381 0.983707 0.78398
115 4 0.138173 0.915335 0.806709
1311 2 0.232133 0.965145 0.760867
569 4 0.204994 0.952103 0.828205
1312 4 0.223132 0.945305 0.789604
978 2 0.345471 0.95507 0.77582
980 4 0.337623 0.963523 0.809987
794 4 0.40586 0.986043 0.822767
793 4 0.449821 0.967226 0.768777
792 2 0.427841 0.976634 0.795772
742 4 0.0909627 0.0314102 0.898807
1144 4 0.0634928 0.00408759 0.901948
1143 2 0.049634 0.033855 0.916855
1145 4 0.0357759 0.0636223 0.931762
741 2 0.111739 0.0509989 0.876782
743 4 0.132514 0.0705873 0.854757
1010 4 0.212956 0.053479 0.862643
568 4 0.208208 0.0216408 0.84707
344 4 0.387523 0.00982964 0.84271
1410 2 0.0488673 0.11799 0.905208
1412 4 0.0583088 0.139395 0.877765
1245 2 0.340266 0.133791 0.919955
1247 4 0.356645 0.150182 0.892325
798 2 0.137522 0.199958 0.826223
799 4 0.115381 0.172264 0.819646
586 4 0.19092 0.236424 0.851073
800 4 0.159662 0.227652 0.832801
1227 2 0.0494218 0.285194 0.909863
1228 4 0.0790431 0.279204 0.890188
768 2 0.100662 0.273556 0.844111
770 4 0.103577 0.298383 0.870102
585 2 0.206456 0.268952 0.85009
587 4 0.221991 0.30148 0.849107
1358 4 0.23718 0.323787 0.891193
1356 2 0.257473 0.301872 0.9114
1129 4 0.376939 0.297124 0.822414
1004 4 0.0606444 0.389008 0.869704
1003 4 0.127917 0.38817 0.843718
1002 2 0.0942809 0.388589 0.856711
784 4 0.240613 0.329039 0.856087
783 2 0.257288 0.355475 0.838102
62 4 0.389939 0.410548 0.907771
1421 4 0.396362 0.440422 0.991632
931 4 0.0102329 0.466667 0.863858
1001 4 0.198388 0.452648 0.898223
599 4 0.206681 0.41781 0.898426
999 2 0.209208 0.482889 0.914618
789 2 0.305155 0.428802 0.840107
791 4 0.332909 0.436576 0.861779
61 4 0.320764 0.427441 0.896327
60 2 0.355351 0.418994 0.902049
613 4 0.431293 0.478374 0.887545
235 4 0.488886 0.428929 0.850086
1006 4 0.334581 0.568011 0.853799
964 4 0.436008 0.564393 0.921437
963 2 0.446812 0.562699 0.887074
965 4 0.457616 0.561004 0.852711
1304 4 0.0570391 0.646373 0.886698
1302 2 0.025893 0.628881 0.89163
1126 4 0.0699688 0.650376 0.853748
71 4 0.230399 0.596808 0.909229
69 2 0.220319 0.62989 0.899011
70 4 0.21024 0.662972 0.888794
1005 2 0.345744 0.602167 0.850779
1007 4 0.356907 0.636324 0.847759
475 4 0.332839 0.657971 0.867867
1472 4 0.398617 0.652676 0.910037
101 4 0.449717 0.595964 0.850089
474 2 0.320569 0.690901 0.859773
476 4 0.308299 0.72383 0.851678
717 2 0.234684 0.798684 0.860337
718 4 0.256452 0.772555 0.872332
719 4 0.212916 0.824812 0.848343
707 4 0.486726 0.815289 0.902961
278 4 0.482826 0.747508 0.89918
468 2 0.133878 0.886546 0.844944
470 4 0.105216 0.872075 0.86136
160 4 0.22661 0.867882 0.891866
567 2 0.206601 0.986872 0.837638
342 2 0.362306 0.989685 0.858795
343 4 0.33709 0.969541 0.874881
988 4 0.142954 0.00055904 0.956849
987 2 0.150365 0.0148899 0.989099
1336 4 0.263727 0.0569342 0.985607
1335 2 0.295356 0.0702288 0.974504
654 2 0.375151 0.0590617 0.975986
962 4 0.00487547 0.0721142 0.659507
655 4 0.396066 0.0483564 0.948629
622 4 0.00464705 0.223365 0.984215
1411 4 0.0394262 0.096585 0.93265
1337 4 0.326986 0.0835238 0.963402
1246 4 0.323888 0.117399 0.947586
1226 4 0.0112761 0.385109 0.509608
1396 4 0.015139 0.172137 0.968936
635 4 0.490269 0.877675 0.978166
36 1 0.0456446 0.192362 0.998556
37 3 0.0536523 0.188049 0.966651
675 2 0.00174418 0.2338 0.632913
1229 4 0.0198005 0.291183 0.929538
543 2 0.0747741 0.281553 0.981559
545 4 0.105038 0.29315 0.965748
728 4 0.223113 0.319159 0.000476745
1223 4 0.477125 0.396661 0.555715
1357 4 0.277765 0.279956 0.931607
597 2 0.22762 0.402756 0.923633
598 4 0.248558 0.387702 0.94884
405 2 0.296871 0.377651 0.971702
406 4 0.269683 0.357029 0.960043
407 4 0.324059 0.398274 0.983361
1061 4 0.00204471 0.441753 0.917564
699 2 0.207222 0.482232 0.989143
700 4 0.217793 0.510703 0.969697
788 4 0.310166 0.435137 0.974305
1487 4 0.42495 0.476624 0.956004
1485 2 0.452227 0.454048 0.96284
1486 4 0.479504 0.431472 0.969676
1382 4 0.0427358 0.534521 0.973907
1380 2 0.0407394 0.560462 0.948937
1381 4 0.0387429 0.586403 0.923967
1000 4 0.220028 0.51313 0.931015
1105 4 0.324041 0.528336 0.957275
1104 2 0.327753 0.564168 0.955648
948 2 0.441123 0.553909 0.988567
950 4 0.446143 0.561787 0.953737
233 4 0.284921 0.652928 0.960617
1106 4 0.331466 0.600001 0.954021
576 2 0.499652 0.611733 0.946351
577 4 0.469647 0.60615 0.927142
459 2 0.228554 0.665399 0.996755
460 4 0.262925 0.663433 0.986023
231 2 0.298779 0.686153 0.958516
232 4 0.312637 0.719379 0.956415
1351 4 0.328024 0.740028 0.981254
1470 2 0.416733 0.672534 0.934076
1471 4 0.434849 0.692393 0.958114
277 4 0.468595 0.709009 0.958484
276 2 0.475711 0.728259 0.928832
1081 4 0.17878 0.799879 0.969651
705 2 0.474892 0.839497 0.926927
902 4 0.482074 0.781182 0.974522
1080 2 0.168549 0.819329 0.998241
161 4 0.186472 0.846357 0.947788
159 2 0.206541 0.857119 0.919827
1190 4 0.20485 0.877597 0.958001
1188 2 0.212339 0.90706 0.977398
1241 4 0.368514 0.871693 0.997805
362 4 0.443102 0.885244 0.935659
706 4 0.463058 0.863705 0.950892
544 4 0.0445098 0.269955 0.99737
30 3 0.12394 0.596422 0.498349
489 2 0.431127 0.623361 0.504995
546 2 0.512882 0.0525166 0.048393
548 4 0.531245 0.029871 0.0271708
1207 4 0.993375 0.528353 0.38226
1400 4 0.6545 0.0599463 0.00625534
846 2 0.802273 0.048989 0.0661396
848 4 0.776737 0.0235269 0.066181
847 4 0.827809 0.0744512 0.0660982
1500 2 0.985237 0.00997559 0.030038
1502 4 0.962901 0.0124025 0.00183163
1398 2 0.655116 0.0770912 0.0379743
951 2 0.72465 0.115935 0.0719214
952 4 0.691148 0.102971 0.0750763
1399 4 0.655733 0.0942361 0.069693
294 2 0.853773 0.129487 0.0535731
296 4 0.859517 0.0944696 0.0599892
295 4 0.848028 0.164505 0.0471569
973 4 0.561603 0.229515 0.0160401
824 4 0.803572 0.247613 0.0868032
373 4 0.859756 0.176718 0.0800389
487 4 0.990274 0.892828 0.47977
437 4 0.621224 0.28544 0.0194774
435 2 0.647981 0.303488 0.00339073
239 4 0.81493 0.319152 0.00735749
823 4 0.813329 0.305438 0.0448207
822 2 0.808451 0.276526 0.0658112
872 4 0.564407 0.394962 0.0740031
870 2 0.541467 0.413868 0.0944162
237 2 0.791379 0.342145 0.0220889
238 4 0.767827 0.36514 0.0368189
1135 4 0.554826 0.51327 0.0213544
494 4 0.646169 0.50668 0.0124265
991 4 0.764685 0.467994 0.0740531
1475 4 0.936957 0.410282 0.0202357
1473 2 0.938624 0.433026 0.0481698
1474 4 0.940292 0.455771 0.0761034
1134 2 0.519595 0.513571 0.029043
493 4 0.707454 0.533156 0.0397186
492 2 0.676811 0.519918 0.0260725
412 4 0.717692 0.566973 0.0462685
647 4 0.79454 0.584705 0.0830157
411 2 0.737205 0.59363 0.0318095
398 4 0.889371 0.65593 0.998528
45 3 0.545859 0.690721 0.0723098
325 4 0.653122 0.732435 0.0373536
1040 4 0.653632 0.691453 0.0763362
779 4 0.67084 0.707871 0.0577447
777 2 0.699081 0.686948 0.04968
778 4 0.727323 0.666027 0.0416136
1404 2 0.992346 0.439424 0.27099
904 4 0.990652 0.197797 0.414386
593 4 0.569778 0.794863 0.0296236
901 4 0.543164 0.806351 0.00343958
324 2 0.659055 0.749067 0.00591205
1147 4 0.575222 0.817238 0.0575587
1146 2 0.607836 0.829628 0.0666828
520 4 0.673372 0.831723 0.0649117
519 2 0.691256 0.831937 0.0335986
521 4 0.709141 0.83215 0.00228536
634 4 0.537601 0.903683 0.0259669
1148 4 0.64045 0.842017 0.0758067
113 4 0.677228 0.931183 0.0685068
197 4 0.80175 0.933067 0.0503894
196 4 0.873183 0.9409 0.0565286
195 2 0.837467 0.936984 0.053459
250 4 0.837685 0.910848 0.429036
1279 4 0.521995 0.0652133 0.0978738
1278 2 0.553557 0.0618869 0.115
1280 4 0.585118 0.0585626 0.132126
1429 4 0.641002 0.0873598 0.153838
1075 4 0.589001 0.0586775 0.172175
1428 2 0.673692 0.0753675 0.163217
1244 4 0.988734 0.0250648 0.157966
515 4 0.513907 0.104324 0.0901518
513 2 0.534136 0.133284 0.09741
514 4 0.554365 0.16224 0.104668
1258 4 0.571147 0.148488 0.133748
1257 2 0.59044 0.122682 0.149941
1259 4 0.609732 0.0968744 0.166134
953 4 0.758153 0.128898 0.0687664
313 4 0.68361 0.161584 0.0913306
314 4 0.716358 0.199694 0.143069
312 2 0.699984 0.180639 0.1172
937 4 0.775105 0.224035 0.0899162
936 2 0.774302 0.205927 0.121091
938 4 0.773499 0.18782 0.152266
280 4 0.804757 0.207614 0.149528
374 4 0.898598 0.231294 0.106765
372 2 0.879177 0.204006 0.0934019
956 4 0.932233 0.233971 0.0973146
775 4 0.523265 0.250155 0.12076
774 2 0.523066 0.265354 0.153461
826 4 0.785223 0.309487 0.140778
825 2 0.817217 0.325661 0.136877
827 4 0.84921 0.341835 0.132977
954 2 0.956154 0.248256 0.120208
955 4 0.980076 0.26254 0.143102
805 4 0.877232 0.322063 0.152745
804 2 0.908073 0.33717 0.163748
588 2 0.506642 0.454845 0.148384
1115 4 0.749801 0.949925 0.412304
871 4 0.518527 0.432775 0.11483
990 2 0.74193 0.477333 0.100423
992 4 0.719175 0.486672 0.126794
1255 4 0.734675 0.467667 0.154894
286 4 0.693527 0.49044 0.101438
746 4 0.941676 0.454193 0.110045
744 2 0.970542 0.468571 0.126182
287 4 0.663916 0.55034 0.128582
285 2 0.678722 0.52039 0.11501
646 4 0.798373 0.519174 0.112892
645 2 0.796457 0.551939 0.0979537
504 2 0.867176 0.525822 0.126116
505 4 0.900862 0.532298 0.137238
506 4 0.83349 0.519346 0.114994
208 4 0.584156 0.624681 0.0903309
207 2 0.60422 0.617334 0.11938
1328 4 0.790842 0.585578 0.119137
1326 2 0.780887 0.603671 0.1487
453 2 0.973263 0.602903 0.16322
454 4 0.947052 0.602942 0.138453
44 3 0.561546 0.649079 0.103433
41 1 0.554753 0.681838 0.102655
42 3 0.529828 0.688125 0.123628
43 3 0.581633 0.699311 0.11225
1038 2 0.632364 0.720469 0.0788228
1459 4 0.816082 0.728392 0.11277
1458 2 0.839479 0.741291 0.13699
1460 4 0.862876 0.75419 0.16121
155 4 0.541967 0.79888 0.130622
1039 4 0.611094 0.749483 0.0813109
112 4 0.683362 0.913083 0.138051
111 2 0.680295 0.922132 0.103279
832 4 0.823272 0.856551 0.16754
1036 4 0.970432 0.897812 0.0991168
1035 2 0.993565 0.872411 0.0881599
352 4 0.501302 0.93139 0.120902
983 4 0.511541 0.96466 0.124042
981 2 0.515706 0.963101 0.159828
1463 4 0.878622 0.948652 0.0907567
1461 2 0.911318 0.933483 0.0918767
1324 4 0.845366 0.990367 0.168297
1462 4 0.944014 0.918314 0.0929965
1074 2 0.61043 0.0310301 0.180942
1076 4 0.63186 0.003383 0.189708
751 4 0.732571 0.0381763 0.172644
1430 4 0.706382 0.063375 0.172596
1384 4 0.711827 0.01755 0.196305
1325 4 0.810359 0.0457015 0.198534
1323 2 0.827863 0.0180343 0.183415
750 2 0.749804 0.0595445 0.196029
752 4 0.767036 0.0809124 0.219414
906 2 0.863793 0.0882782 0.223585
908 4 0.844338 0.082704 0.253433
1243 4 0.964318 0.0265244 0.225814
1242 2 0.976526 0.0257945 0.19189
591 2 0.580783 0.766833 0.00978246