ITEM: TIMESTEP
1744500
ITEM: NUMBER OF ATOMS
1520
ITEM: BOX BOUNDS pp pp pp
-6.9326749999999997e+00 6.9326749999999997e+00
-6.9326749999999997e+00 6.9326749999999997e+00
-6.9326749999999997e+00 6.9326749999999997e+00
ITEM: ATOMS id type xs ys zs
371 4 0.0614781 0.990356 0.0615698
369 2 0.0312141 0.00948667 0.0658718
1246 4 0.0515425 0.0488335 0.0081162
1245 2 0.0868642 0.0559576 0.00952886
1247 4 0.122186 0.0630814 0.0109401
978 2 0.196841 0.0449832 0.0695463
979 4 0.204038 0.0803101 0.0687353
980 4 0.189643 0.00965755 0.0703574
1409 4 0.0349312 0.0604759 0.034938
1407 2 0.0172522 0.0899254 0.0459206
870 2 0.117235 0.0995869 0.0695733
871 4 0.120803 0.0854189 0.0366045
1485 2 0.297649 0.123463 0.0386438
1486 4 0.32383 0.123112 0.0634421
1487 4 0.271468 0.123814 0.0138471
40 3 0.0937491 0.252426 0.0483873
36 1 0.120022 0.238186 0.0620207
453 2 0.275513 0.243668 0.0557103
814 4 0.464243 0.223588 0.0341626
585 2 0.0701986 0.304421 0.0232205
586 4 0.0563545 0.336549 0.0319711
379 4 0.022652 0.32233 0.0321313
316 4 0.495158 0.616648 0.339269
587 4 0.0840428 0.272293 0.0144707
39 3 0.147864 0.248324 0.0464655
454 4 0.274166 0.244503 0.0196836
1181 4 0.263562 0.27747 0.0150162
813 2 0.466682 0.256003 0.0185528
111 2 0.425363 0.310413 0.0680482
113 4 0.442247 0.309581 0.0361937
1323 2 0.193238 0.368381 0.0570631
1325 4 0.164245 0.387823 0.066111
1324 4 0.22223 0.348941 0.0480148
1473 2 0.297229 0.40027 0.0414186
1475 4 0.300705 0.379622 0.0120596
1034 4 0.330872 0.411141 0.0736882
995 4 0.328519 0.348567 0.0204461
993 2 0.351358 0.360947 0.995435
721 4 0.444663 0.317803 2.49946e-05
532 4 0.0270269 0.442283 0.0643807
531 2 0.0405695 0.440633 0.030999
277 4 0.492511 0.494397 0.206729
1237 4 0.188425 0.483794 0.0608061
1236 2 0.172458 0.480977 0.0285956
1474 4 0.293755 0.420918 0.0707793
229 4 0.331487 0.493894 0.0230202
1160 4 0.203305 0.540984 0.0885923
73 4 0.211537 0.512975 0.055692
72 2 0.212167 0.545659 0.040466
228 2 0.342866 0.510977 0.0526695
230 4 0.354246 0.528061 0.0823187
821 4 0.337915 0.582069 0.0279851
683 4 0.432342 0.519468 0.0308363
681 2 0.461588 0.532432 0.0141938
682 4 0.490835 0.545398 0.997551
47 3 0.0658064 0.688098 0.0555168
78 2 0.175999 0.61491 0.0683635
80 4 0.190722 0.609664 0.0358655
74 4 0.212795 0.578342 0.0252414
897 2 0.294026 0.623502 0.0120579
899 4 0.276961 0.654749 0.0177892
858 2 0.322554 0.602081 0.083012
898 4 0.311088 0.592255 0.00632709
860 4 0.334109 0.631223 0.065189
1417 4 0.369039 0.642002 0.0492484
48 3 0.101229 0.717059 0.0845688
50 3 0.111796 0.704442 0.0328189
46 1 0.098071 0.69382 0.0607054
1094 4 0.114477 0.74784 0.0625691
1416 2 0.366466 0.677952 0.048043
1418 4 0.363894 0.713901 0.0468381
1064 4 0.352725 0.73673 0.0749427
1093 4 0.116668 0.81296 0.0316599
1092 2 0.115571 0.780397 0.0471164
517 4 0.18403 0.909458 0.00233795
1466 4 0.477658 0.88959 0.0505435
1044 2 0.417932 0.0548497 0.155334
599 4 0.394212 0.992914 0.146653
1045 4 0.401554 0.0253488 0.142614
1046 4 0.434313 0.0843517 0.168054
1341 2 0.486899 0.0843919 0.172451
872 4 0.113665 0.113755 0.102542
1343 4 0.466566 0.114165 0.171705
1020 2 0.457104 0.157173 0.148983
1022 4 0.490694 0.144702 0.144907
469 4 0.0678344 0.238369 0.117558
468 2 0.0326372 0.238369 0.125407
37 3 0.117418 0.205253 0.058969
1414 4 0.10537 0.231557 0.117484
1413 2 0.101299 0.208772 0.145134
455 4 0.276859 0.242831 0.0917368
505 4 0.293928 0.229776 0.122959
504 2 0.319935 0.205563 0.116808
506 4 0.345942 0.18135 0.110657
1021 4 0.423513 0.169643 0.153061
38 3 0.121631 0.245945 0.0945328
603 2 0.204605 0.293154 0.113297
604 4 0.196464 0.258031 0.113969
1192 4 0.232331 0.325092 0.154383
605 4 0.212746 0.328279 0.112625
1312 4 0.324329 0.331133 0.111892
112 4 0.408481 0.311246 0.0999028
1313 4 0.388719 0.307177 0.133842
1311 2 0.356524 0.319154 0.122867
197 4 0.455641 0.297508 0.151033
2 3 0.244259 0.415759 0.123146
1372 4 0.0135916 0.437985 0.101702
1159 4 0.229389 0.486539 0.128045
5 3 0.25177 0.459669 0.153361
1 1 0.257373 0.446225 0.123921
4 3 0.243096 0.464761 0.0999944
123 2 0.186137 0.433733 0.16109
125 4 0.212434 0.458093 0.157175
3 3 0.290317 0.443964 0.118491
1032 2 0.328364 0.415074 0.109447
1033 4 0.325855 0.419008 0.145206
1183 4 0.281652 0.439609 0.175671
1503 2 0.480181 0.488715 0.145334
1158 2 0.216348 0.513761 0.108321
859 4 0.311001 0.572939 0.100834
9 3 0.366161 0.558779 0.0998866
10 3 0.366297 0.540994 0.151195
6 1 0.348488 0.543252 0.123689
8 3 0.339654 0.512704 0.113265
7 3 0.321039 0.560834 0.129857
1140 2 0.156203 0.636609 0.152462
1141 4 0.147353 0.652146 0.121147
79 4 0.161275 0.620155 0.100862
626 4 0.491583 0.637397 0.0957238
49 3 0.112672 0.665344 0.0704936
1062 2 0.385167 0.747695 0.0862425
1161 2 0.460329 0.737481 0.147376
1063 4 0.41761 0.758661 0.0975426
1163 4 0.483649 0.718017 0.166815
1354 4 0.121042 0.751569 0.0976957
1353 2 0.109324 0.758193 0.13115
1162 4 0.437011 0.756945 0.127938
244 4 0.163551 0.89467 0.0988093
243 2 0.193022 0.915167 0.102237
245 4 0.222493 0.935664 0.105664
489 2 0.294357 0.940596 0.161514
491 4 0.267097 0.940766 0.13791
598 4 0.376175 0.942087 0.0987691
597 2 0.385194 0.967501 0.122712
87 2 0.0456157 0.999636 0.211448
89 4 0.0704396 0.0198839 0.228007
845 4 0.273497 0.0121256 0.231505
207 2 0.286171 0.144558 0.242986
1491 2 0.413089 0.141643 0.205987
1493 4 0.430661 0.125496 0.233022
1492 4 0.395518 0.15779 0.17895
1415 4 0.0972289 0.185984 0.172784
365 4 0.328308 0.226466 0.185498
208 4 0.315667 0.160232 0.229395
363 2 0.307694 0.225675 0.215076
364 4 0.28708 0.224883 0.244654
1067 4 0.120813 0.321128 0.201316
1065 2 0.0996693 0.294387 0.213074
1066 4 0.0785242 0.267646 0.224831
1191 2 0.247212 0.317031 0.186227
1028 4 0.241668 0.28698 0.240019
1193 4 0.262092 0.308969 0.21807
196 4 0.395474 0.296503 0.190792
1115 4 0.401198 0.288316 0.226856
195 2 0.425557 0.297005 0.170913
730 4 0.476691 0.245442 0.227076
1412 4 0.116495 0.357112 0.202629
1410 2 0.124234 0.391226 0.193867
1411 4 0.131974 0.42534 0.185106
124 4 0.159836 0.409374 0.165004
1278 2 0.44586 0.373978 0.217584
1280 4 0.449319 0.357299 0.1858
1182 2 0.305057 0.428713 0.20085
22 3 0.354362 0.421267 0.253773
1184 4 0.328461 0.417818 0.226028
278 4 0.43692 0.492494 0.25264
276 2 0.464716 0.493445 0.229684
1504 4 0.469491 0.482315 0.179174
460 4 0.00373344 0.505945 0.233064
948 2 0.238421 0.574152 0.254053
1275 2 0.320174 0.559787 0.227036
1277 4 0.337203 0.575574 0.199446
1142 4 0.165053 0.621071 0.183778
782 4 0.204621 0.620171 0.248311
949 4 0.203631 0.582385 0.249333
780 2 0.209586 0.651127 0.230491
694 4 0.431274 0.628843 0.19577
693 2 0.399069 0.613432 0.190699
695 4 0.366863 0.598022 0.185628
796 4 0.0882259 0.691454 0.207104
797 4 0.158876 0.680708 0.197369
795 2 0.123551 0.686081 0.202236
1298 4 0.17877 0.704092 0.215164
1296 2 0.186179 0.725608 0.243139
781 4 0.21455 0.682083 0.212672
818 4 0.493 0.686853 0.191105
1479 2 0.0426792 0.770702 0.199373
1481 4 0.0228918 0.782221 0.227233
1480 4 0.0624667 0.759183 0.171512
1355 4 0.0976122 0.764821 0.164604
1136 4 0.205168 0.844711 0.203663
434 4 0.0465735 0.871997 0.196384
432 2 0.0125773 0.877854 0.206886
236 4 0.131926 0.881759 0.226842
1134 2 0.186813 0.875502 0.207587
1135 4 0.168457 0.906293 0.21151
88 4 0.0207916 0.979387 0.194888
490 4 0.321618 0.940426 0.185121
1079 4 0.0595142 0.0604577 0.26008
1077 2 0.0425277 0.0901944 0.271377
151 4 0.0774126 0.0282169 0.264692
150 2 0.10861 0.0448924 0.271699
152 4 0.139805 0.0615691 0.278706
824 4 0.124202 0.0744086 0.310699
180 2 0.203669 0.0138255 0.319476
550 4 0.298921 0.0492806 0.315952
549 2 0.28185 0.0737452 0.295691
1078 4 0.0255412 0.119931 0.282674
209 4 0.256675 0.128883 0.256576
551 4 0.264781 0.0982102 0.275431
1112 4 0.00918791 0.204583 0.244268
1026 2 0.241007 0.264997 0.268598
1027 4 0.240346 0.243014 0.297175
1113 2 0.392316 0.315017 0.249407
25 3 0.370161 0.430641 0.304368
1114 4 0.383434 0.341718 0.271958
1279 4 0.4424 0.390658 0.249369
133 4 0.13129 0.462152 0.24756
132 2 0.110684 0.491383 0.252184
1350 2 0.11354 0.449948 0.326161
1351 4 0.100374 0.480172 0.311547
23 3 0.356272 0.472184 0.272274
21 1 0.349817 0.440394 0.280498
394 4 0.389967 0.483979 0.276689
24 3 0.318063 0.437439 0.290642
1426 4 0.420418 0.476342 0.294942
1425 2 0.440226 0.447108 0.30225
1427 4 0.460034 0.417873 0.309558
1116 2 0.0596418 0.531361 0.317606
1117 4 0.0631583 0.522847 0.282741
373 4 0.112958 0.548283 0.262336
134 4 0.0900798 0.520613 0.25681
372 2 0.128733 0.571486 0.284989
950 4 0.273211 0.56592 0.258772
1276 4 0.303144 0.544001 0.254625
395 4 0.363626 0.549256 0.292402
393 2 0.376797 0.516618 0.284546
1042 4 0.155751 0.621936 0.328355
374 4 0.144507 0.59469 0.307643
1346 4 0.174167 0.931378 0.495099
1344 2 0.166422 0.947533 0.463803
1053 2 0.220316 0.71754 0.321128
1054 4 0.220038 0.73312 0.288607
1055 4 0.220596 0.70196 0.353647
847 4 0.340541 0.708332 0.319125
117 2 0.462987 0.720237 0.297382
119 4 0.476662 0.697606 0.272861
717 2 0.0126391 0.781492 0.27597
719 4 0.042822 0.772737 0.258285
482 4 0.133781 0.790096 0.285009
480 2 0.144434 0.823953 0.291379
1297 4 0.193588 0.747123 0.271114
1449 2 0.467725 0.794746 0.336291
1451 4 0.438742 0.773462 0.333571
1361 4 0.018038 0.877366 0.300013
235 4 0.0854834 0.889529 0.281472
234 2 0.108704 0.885644 0.254157
481 4 0.155087 0.857811 0.29775
280 4 0.142521 0.872925 0.329692
647 4 0.493367 0.845073 0.313867
844 4 0.229223 0.975355 0.274972
181 4 0.201868 0.987528 0.294866
843 2 0.25136 0.99374 0.253238
507 2 0.0685548 0.0300509 0.372434
508 4 0.0725578 0.0326513 0.336691
509 4 0.0645519 0.0274497 0.408179
822 2 0.131097 0.0747602 0.346093
823 4 0.13799 0.0751116 0.381488
577 4 0.129745 0.0440758 0.399959
576 2 0.132394 0.015678 0.422026
182 4 0.205472 0.0401228 0.344085
1269 2 0.327696 0.0600303 0.36395
1271 4 0.298408 0.0425442 0.352251
1270 4 0.356984 0.0775168 0.375649
448 4 0.306506 0.163437 0.377872
447 2 0.275546 0.149879 0.390443
138 2 0.371764 0.141806 0.401876
140 4 0.340571 0.135104 0.385068
449 4 0.244585 0.13632 0.403014
139 4 0.402957 0.148508 0.418682
1267 4 0.423351 0.176251 0.415385
410 4 0.322193 0.293328 0.422669
408 2 0.342022 0.291731 0.39259
409 4 0.36185 0.290136 0.362512
1352 4 0.126705 0.419723 0.340774
1108 4 0.215715 0.424942 0.394025
254 4 0.361298 0.452618 0.409109
252 2 0.385457 0.450245 0.382441
253 4 0.409615 0.447873 0.355773
1118 4 0.0561249 0.539875 0.352471
1145 4 0.0337512 0.668311 0.353873
1041 2 0.137425 0.636245 0.355919
688 4 0.112872 0.616097 0.395789
1043 4 0.119098 0.650554 0.383484
1143 2 0.0669639 0.67968 0.345623
1144 4 0.100177 0.691048 0.337373
592 4 0.160873 0.709039 0.38399
343 4 0.226157 0.716305 0.384312
591 2 0.187394 0.730699 0.3953
846 2 0.317905 0.691207 0.341368
342 2 0.258741 0.702227 0.390675
848 4 0.295269 0.674083 0.363612
344 4 0.291325 0.688149 0.397038
118 4 0.449312 0.742867 0.321903
281 4 0.138125 0.838636 0.39299
172 4 0.251662 0.772637 0.316323
173 4 0.282562 0.773853 0.38148
171 2 0.267112 0.773245 0.348902
279 2 0.140323 0.855781 0.361341
92 4 0.0458251 0.0553359 0.430857
415 4 0.0257421 0.0812962 0.450986
90 2 0.0630702 0.0485688 0.461797
91 4 0.0803148 0.0418018 0.492736
839 4 0.178396 0.0611761 0.488794
1391 4 0.490439 0.00896303 0.468774
1285 4 0.205169 0.0827223 0.468777
1284 2 0.227517 0.0963063 0.493606
1268 4 0.448933 0.202657 0.477432
1266 2 0.436141 0.189454 0.446409
624 2 0.494667 0.660396 0.123327
990 2 0.280343 0.291841 0.473663
992 4 0.312565 0.297147 0.458363
1202 4 0.4462 0.427069 0.49528
1432 4 0.473332 0.417491 0.475562
933 2 0.079323 0.496783 0.475121
934 4 0.0951938 0.47516 0.499224
1107 2 0.195993 0.45071 0.409755
1109 4 0.176271 0.476478 0.425484
677 4 0.18523 0.50064 0.450903
85 4 0.491356 0.458396 0.420359
84 2 0.459158 0.474629 0.419887
86 4 0.426961 0.490861 0.419415
935 4 0.0634517 0.518405 0.451017
427 4 0.0295564 0.523272 0.435335
426 2 0.000585385 0.529152 0.455987
217 4 0.151944 0.61463 0.492965
689 4 0.12754 0.609207 0.466068
687 2 0.120206 0.612652 0.430928
546 2 0.110147 0.703489 0.487275
548 4 0.0845547 0.702085 0.461908
593 4 0.213916 0.752359 0.406609
148 4 0.301667 0.778762 0.46235
257 4 0.447456 0.760862 0.504607
1498 4 0.397897 0.862463 0.482211
1497 2 0.378543 0.88947 0.496227
578 4 0.135043 0.987281 0.444094
1345 4 0.158676 0.963689 0.432507
358 4 0.492214 0.783388 0.0337852
1505 4 0.490872 0.495115 0.111494
1348 4 0.10965 0.248081 0.496447
675 2 0.211092 0.497351 0.475817
881 4 0.0605517 0.241685 0.00935256
424 4 0.274658 0.475721 0.00587058
819 2 0.36684 0.569779 0.0103019
877 4 0.052695 0.796841 0.00421072
1091 4 0.0263508 0.997867 0.565727
838 4 0.138998 0.0116276 0.523356
837 2 0.158696 0.0364022 0.506075
1306 4 0.403383 0.00728993 0.493177
485 4 0.00459101 0.165437 0.602118
325 4 0.171008 0.141943 0.519537
1310 4 0.176438 0.130465 0.552822
1286 4 0.249865 0.10989 0.518434
176 4 0.320432 0.115378 0.51971
174 2 0.34528 0.131669 0.540146
175 4 0.370127 0.14796 0.560581
483 2 0.0325558 0.183201 0.587878
484 4 0.0605209 0.200967 0.573638
324 2 0.144313 0.166132 0.52117
326 4 0.117617 0.19032 0.522803
1039 4 0.195207 0.2003 0.539803
1038 2 0.212332 0.232013 0.538601
1169 4 0.303733 0.19793 0.56393
983 4 0.4937 0.0125414 0.807758
1347 2 0.10308 0.255244 0.531175
201 2 0.0931014 0.33129 0.582198
1349 4 0.0965096 0.262407 0.565901
644 4 0.301278 0.291349 0.592356
642 2 0.279543 0.292878 0.563621
643 4 0.257809 0.294407 0.534885
991 4 0.248122 0.286537 0.488961
522 2 0.444669 0.3137 0.561886
202 4 0.0894578 0.36578 0.572323
1007 4 0.180063 0.390605 0.59247
1005 2 0.203901 0.399723 0.566994
126 2 0.330612 0.400336 0.530979
128 4 0.319085 0.383694 0.560822
1201 4 0.420362 0.359963 0.500825
1200 2 0.433281 0.393516 0.498053
524 4 0.451883 0.348402 0.55524
190 4 0.157033 0.447587 0.531761
189 2 0.131054 0.444234 0.556544
191 4 0.105075 0.440882 0.581327
676 4 0.236955 0.494063 0.500732
581 4 0.0200805 0.978273 0.66
1006 4 0.227739 0.40884 0.541517
127 4 0.342138 0.416977 0.501136
218 4 0.149139 0.66077 0.548327
216 2 0.150542 0.6377 0.520646
775 4 0.301813 0.667853 0.524797
313 4 0.31642 0.651726 0.560321
314 4 0.363714 0.600603 0.579066
312 2 0.340068 0.626164 0.569694
400 4 0.467445 0.659603 0.533437
1127 4 0.169905 0.717137 0.533944
547 4 0.13574 0.704892 0.512642
835 4 0.137918 0.694822 0.568092
1125 2 0.176641 0.745942 0.513321
774 2 0.292312 0.691334 0.550465
776 4 0.282811 0.714813 0.576133
1429 4 0.470517 0.696648 0.532841
1428 2 0.463217 0.71839 0.560669
1242 2 0.0575962 0.772236 0.572049
1244 4 0.0216841 0.772323 0.575324
1243 4 0.0935082 0.772148 0.568773
1126 4 0.183378 0.774747 0.492697
147 2 0.296094 0.773456 0.497581
149 4 0.29052 0.76815 0.532812
104 4 0.428658 0.93829 0.975172
255 2 0.476885 0.779598 0.513733
340 4 0.00350567 0.913135 0.562821
1340 4 0.0148694 0.915703 0.595559
1282 4 0.150531 0.872075 0.537181
1281 2 0.179521 0.850676 0.535764
1283 4 0.208512 0.829276 0.534348
1499 4 0.35919 0.916477 0.510243
146 4 0.446123 0.902737 0.587184
145 4 0.473779 0.919659 0.52276
144 2 0.459951 0.911198 0.554971
556 4 0.500296 0.892588 0.529429
341 4 0.0340059 0.96714 0.526013
339 2 0.0187553 0.940137 0.544417
743 4 0.0657475 0.992595 0.53968
742 4 0.135825 0.976414 0.545079
741 2 0.100786 0.984504 0.54238
142 4 0.17004 0.998279 0.545868
141 2 0.186295 0.00303721 0.577706
1305 2 0.380299 0.980523 0.500326
1016 4 0.0807165 0.030005 0.649774
1090 4 0.055157 0.0303387 0.623325
1089 2 0.0407534 0.0141032 0.594526
1014 2 0.0577953 0.0126868 0.671571
1265 4 0.207668 0.0427429 0.610767
1263 2 0.238134 0.0619728 0.609213
1387 4 0.291916 0.0683204 0.633093
1264 4 0.2686 0.0812033 0.607659
1308 2 0.197249 0.123242 0.581373
1309 4 0.218059 0.116018 0.609924
56 4 0.05102 0.233695 0.588797
1167 2 0.295136 0.21475 0.594648
1168 4 0.28654 0.23157 0.625366
974 4 0.37581 0.176378 0.578656
972 2 0.410217 0.180021 0.588819
973 4 0.444624 0.183663 0.598984
54 2 0.045261 0.254733 0.617513
55 4 0.0395019 0.275772 0.646229
203 4 0.0967455 0.296798 0.592073
1132 4 0.271811 0.304892 0.686769
523 4 0.437456 0.278998 0.568533
1403 4 0.459964 0.267629 0.5998
1401 2 0.451586 0.283308 0.631175
1133 4 0.292017 0.371553 0.668065
1131 2 0.281913 0.338223 0.677417
33 3 0.27845 0.394608 0.63888
35 3 0.32994 0.38465 0.652962
31 1 0.30942 0.407158 0.64067
81 2 0.0687121 0.446707 0.623437
82 4 0.0435025 0.426654 0.639648
83 4 0.093922 0.466759 0.607227
600 2 0.245742 0.483702 0.616717
601 4 0.216353 0.478397 0.63693
602 4 0.27513 0.489008 0.596503
34 3 0.319704 0.416584 0.610252
32 3 0.309105 0.433691 0.660584
51 2 0.46225 0.466463 0.663951
1383 2 0.0157138 0.582214 0.632099
1384 4 0.0179439 0.546232 0.631238
807 2 0.358926 0.563233 0.62744
809 4 0.347728 0.530307 0.636973
1385 4 0.0134848 0.618195 0.632961
836 4 0.103682 0.647357 0.610241
808 4 0.370124 0.596159 0.617905
826 4 0.352419 0.655198 0.659845
307 4 0.49721 0.594508 0.645979
1088 4 0.0302808 0.713918 0.656251
834 2 0.1208 0.671091 0.589167
1052 4 0.123461 0.755068 0.65366
888 2 0.24628 0.715889 0.606863
890 4 0.230812 0.690111 0.626779
889 4 0.261749 0.741668 0.586947
1430 4 0.455918 0.740132 0.588498
320 4 0.482671 0.747437 0.614155
318 2 0.458213 0.747091 0.640651
1086 2 0.0183985 0.74653 0.646469
773 4 0.156915 0.771799 0.663383
772 4 0.228409 0.78073 0.666624
771 2 0.192662 0.776265 0.665003
271 4 0.260602 0.764721 0.666128
1223 4 0.341684 0.81125 0.637652
986 4 0.401862 0.833363 0.654045
1338 2 0.0158446 0.880264 0.602162
1339 4 0.0168196 0.844826 0.608766
631 4 0.308462 0.915631 0.620477
1222 4 0.314608 0.877714 0.630495
1221 2 0.328146 0.844482 0.634073
984 2 0.421952 0.855952 0.634384
985 4 0.442042 0.878542 0.614723
143 4 0.202548 0.00779412 0.609543
632 4 0.301323 0.964468 0.673068
630 2 0.304893 0.94005 0.646773
1379 4 0.174686 0.0340646 0.731333
1378 4 0.24546 0.0211101 0.726352
1377 2 0.210073 0.0275871 0.728842
1386 2 0.290125 0.0693274 0.669096
1388 4 0.288335 0.0703343 0.705099
1211 4 0.405834 0.0206459 0.698613
1209 2 0.424563 0.0514283 0.700061
656 4 0.47864 0.0862043 0.74577
1210 4 0.443291 0.0822101 0.701509
567 2 0.471789 0.135254 0.696437
569 4 0.479426 0.109311 0.720292
568 4 0.464152 0.161197 0.672582
63 2 0.148003 0.224473 0.704157
64 4 0.182191 0.213975 0.699524
634 4 0.30554 0.203001 0.720227
635 4 0.372813 0.223787 0.735844
633 2 0.339176 0.213394 0.728035
883 4 0.397442 0.235588 0.711578
882 2 0.42047 0.209042 0.703488
884 4 0.443498 0.182496 0.695399
850 4 0.0550773 0.285153 0.676598
849 2 0.0790426 0.275702 0.701833
851 4 0.103008 0.266251 0.727067
65 4 0.113816 0.23497 0.70879
1402 4 0.443208 0.298988 0.662549
1272 2 0.474548 0.311621 0.721189
1274 4 0.460896 0.318916 0.688618
1362 2 0.0540786 0.363537 0.733405
913 4 0.0343188 0.401781 0.742247
1364 4 0.0842002 0.359779 0.713939
669 2 0.324912 0.365231 0.733108
488 4 0.33453 0.404252 0.680692
671 4 0.342737 0.386174 0.709782
248 4 0.31918 0.42893 0.692741
246 2 0.301356 0.460191 0.695065
247 4 0.283532 0.491452 0.697391
1249 4 0.284093 0.492308 0.73996
486 2 0.367892 0.413474 0.690812
487 4 0.401254 0.422695 0.70093
52 4 0.437003 0.486429 0.680209
18 3 0.158833 0.532333 0.723662
1248 2 0.280465 0.527807 0.734758
1250 4 0.276837 0.563306 0.729556
308 4 0.439614 0.565773 0.678517
1234 4 0.222634 0.669783 0.701456
20 3 0.191827 0.573519 0.736464
1259 4 0.25176 0.675602 0.728346
306 2 0.468412 0.580141 0.662248
1314 2 0.0449841 0.695701 0.721605
1315 4 0.0414917 0.713182 0.690258
1051 4 0.130448 0.694404 0.692034
1050 2 0.126954 0.724736 0.672847
1235 4 0.167766 0.631424 0.728284
1233 2 0.1952 0.650603 0.71487
1257 2 0.283379 0.692941 0.728021
1258 4 0.314994 0.710278 0.727704
272 4 0.31742 0.745295 0.706097
161 4 0.307477 0.745997 0.745475
825 2 0.347996 0.685097 0.679515
827 4 0.343579 0.715013 0.699176
680 4 0.353583 0.696622 0.734018
114 2 0.413419 0.723261 0.704343
116 4 0.37944 0.723282 0.716448
667 4 0.345368 0.736427 0.734329
115 4 0.447388 0.723246 0.692239
319 4 0.433753 0.746744 0.667147
270 2 0.289007 0.75501 0.68611
829 4 0.376814 0.817492 0.672859
830 4 0.357147 0.7533 0.699245
828 2 0.366983 0.785402 0.686049
857 4 0.330646 0.90905 0.72742
1015 4 0.0348734 0.99537 0.693368
227 4 0.23842 0.00506054 0.763052
42 3 0.386454 0.0216255 0.818283
41 1 0.39088 0.000734152 0.792893
43 3 0.384305 0.0168783 0.764327
44 3 0.42263 0.99016 0.792993
654 2 0.491374 0.0665164 0.773167
655 4 0.504107 0.0468282 0.800565
794 4 0.0419928 0.0727191 0.794385
792 2 0.0307353 0.102685 0.81099
322 4 0.205779 0.152616 0.853603
1454 4 0.315041 0.160776 0.837724
1105 4 0.450128 0.147331 0.830487
323 4 0.156569 0.163108 0.801931
903 2 0.161679 0.261087 0.810033
321 2 0.181175 0.157861 0.827767
904 4 0.181746 0.231717 0.804103
1452 2 0.294596 0.183859 0.819027
1453 4 0.274151 0.206942 0.800329
1208 4 0.0762181 0.272601 0.834386
1206 2 0.063196 0.305167 0.826003
1207 4 0.050174 0.337734 0.81762
403 4 0.150415 0.319502 0.798202
905 4 0.141613 0.290456 0.815965
206 4 0.321028 0.27532 0.813838
842 4 0.349456 0.291193 0.831227
1363 4 0.023956 0.367296 0.752872
402 2 0.129728 0.34505 0.813026
875 4 0.240377 0.393877 0.841157
811 4 0.29006 0.34177 0.786474
670 4 0.307087 0.344289 0.756433
810 2 0.279126 0.357039 0.817259
894 2 0.0459243 0.479004 0.822591
896 4 0.0558977 0.503333 0.797914
1335 2 0.0345918 0.556636 0.776542
1337 4 0.0417959 0.535427 0.804802
19 3 0.161732 0.550427 0.775321
17 3 0.20342 0.523711 0.753259
16 1 0.178941 0.545238 0.747093
1336 4 0.0273882 0.577846 0.748281
1368 2 0.189133 0.665632 0.789902
1370 4 0.199507 0.644217 0.816997
440 4 0.376854 0.647202 0.823342
679 4 0.367944 0.649541 0.786728
714 2 0.448972 0.670336 0.766855
716 4 0.46819 0.676937 0.737064
163 4 0.0246242 0.683213 0.77954
1316 4 0.0484771 0.678222 0.752953
162 2 0.0124195 0.689525 0.812881
1369 4 0.178759 0.687046 0.762806
185 4 0.232457 0.736527 0.826739
678 2 0.360763 0.67308 0.760369
715 4 0.429755 0.663734 0.796647
258 2 0.23883 0.806965 0.823911
160 4 0.257234 0.772758 0.789758
260 4 0.267867 0.807994 0.802552
159 2 0.282356 0.759376 0.767617
105 2 0.338664 0.749634 0.838853
106 4 0.372131 0.759483 0.829726
666 2 0.364174 0.754744 0.759072
668 4 0.382975 0.773057 0.7838
1327 4 0.00968226 0.890635 0.779944
711 2 0.0673065 0.867525 0.78997
712 4 0.0378894 0.878295 0.772111
713 4 0.0967255 0.856754 0.807829
855 2 0.308097 0.910046 0.755544
856 4 0.285547 0.911043 0.783668
594 2 0.0149954 0.985008 0.806582
595 4 0.0424544 0.999154 0.825191
226 4 0.275944 0.947524 0.785032
225 2 0.257182 0.976293 0.774043
893 4 0.292443 0.898805 0.821933
45 3 0.370541 0.975163 0.796252
166 4 0.0615144 0.00967122 0.854755
165 2 0.0507273 0.0331981 0.879865
167 4 0.0399399 0.0567245 0.904977
391 4 0.00229718 0.147763 0.856596
390 2 0.0234032 0.159504 0.883375
793 4 0.0194783 0.13265 0.827597
1104 2 0.424954 0.167676 0.846385
205 4 0.287673 0.254637 0.874346
1106 4 0.39978 0.188022 0.862284
1455 2 0.443722 0.235074 0.901343
538 4 0.17065 0.317041 0.875494
300 2 0.230326 0.285719 0.865394
301 4 0.254893 0.260272 0.858364
302 4 0.205761 0.311165 0.872424
204 2 0.304351 0.264978 0.844092
840 2 0.382704 0.280495 0.840198
841 4 0.415953 0.269797 0.849168
1456 4 0.427612 0.244012 0.870344
404 4 0.109041 0.370596 0.827851
1510 4 0.11472 0.383131 0.863418
1509 2 0.128573 0.382793 0.89671
873 2 0.232347 0.42029 0.864359
1463 4 0.246334 0.361394 0.899149
812 4 0.268191 0.372308 0.848043
620 4 0.464015 0.309027 0.892967
618 2 0.492098 0.331271 0.897088
895 4 0.0359498 0.454674 0.847269
788 4 0.117049 0.469951 0.861487
874 4 0.224316 0.446703 0.88756
545 4 0.445585 0.449913 0.85786
543 2 0.43798 0.460112 0.891603
544 4 0.430375 0.470311 0.925346
786 2 0.128849 0.504014 0.860561
787 4 0.140648 0.538078 0.859635
930 2 0.186518 0.589615 0.84688
932 4 0.166395 0.561825 0.857975
496 4 0.308091 0.583107 0.913153
1439 4 0.477974 0.54772 0.905224
1437 2 0.495759 0.560289 0.876481
102 2 0.458865 0.928722 0.957955
931 4 0.206642 0.617405 0.835785
439 4 0.319978 0.648037 0.867682
438 2 0.348416 0.647619 0.845512
67 4 0.086318 0.732688 0.876055
183 2 0.261887 0.72325 0.842803
959 4 0.172179 0.714928 0.854453
184 4 0.291315 0.709972 0.858867
107 4 0.305196 0.739784 0.84798
744 2 0.382555 0.730854 0.900238
745 4 0.384991 0.708066 0.92808
1252 4 0.456283 0.689538 0.882374
1251 2 0.489586 0.685044 0.869292
66 2 0.0925955 0.758838 0.900079
958 4 0.161821 0.786195 0.850549
957 2 0.167 0.750562 0.852501
1138 4 0.182324 0.802996 0.872028
259 4 0.209793 0.805936 0.84527
1137 2 0.176253 0.821148 0.90259
925 4 0.35156 0.787177 0.870589
924 2 0.36206 0.813364 0.893048
746 4 0.38012 0.753643 0.872395
478 4 0.0159616 0.891709 0.860024
892 4 0.340881 0.926633 0.867552
891 2 0.316661 0.912719 0.844743
418 4 0.0767565 0.146667 0.915947
419 4 0.106418 0.161021 0.9801
417 2 0.0915885 0.153844 0.948024
392 4 0.0445103 0.171244 0.910153
880 4 0.0605048 0.215228 0.942258
879 2 0.060528 0.228456 0.975805
1457 4 0.459833 0.226136 0.932342
334 4 0.038762 0.977316 0.929957
912 2 0.0130748 0.42357 0.722898
537 2 0.169383 0.309065 0.91064
539 4 0.168115 0.301089 0.945785
1180 4 0.272515 0.300306 0.947193
1179 2 0.268039 0.288888 0.981105
815 4 0.469122 0.28842 0.00294336
1511 4 0.142426 0.382456 0.930003
1462 4 0.227364 0.3392 0.965096
1461 2 0.236849 0.350297 0.932122
994 4 0.374198 0.373327 0.970424
722 4 0.412077 0.375992 0.972567
720 2 0.42837 0.346898 0.986296
1238 4 0.156491 0.47816 0.996384
1421 4 0.135623 0.485369 0.966818
1273 4 0.4882 0.304328 0.753759
998 4 0.0611672 0.549597 0.936755
1420 4 0.0730116 0.514632 0.946197
996 2 0.037152 0.555763 0.96294
1419 2 0.104317 0.500001 0.956508
425 4 0.243797 0.52888 0.968144
423 2 0.259227 0.5023 0.987007
495 2 0.320092 0.586342 0.947004
1087 4 0.00651676 0.779141 0.636687
820 4 0.395765 0.557488 0.992619
997 4 0.0131372 0.561929 0.989125
497 4 0.332094 0.589577 0.980856
611 4 0.463154 0.641489 0.980043
609 2 0.491672 0.656845 0.995897
1434 2 0.215273 0.723093 0.93693
1436 4 0.232554 0.732259 0.967225
1435 4 0.197991 0.713926 0.906636
274 4 0.259698 0.715828 0.953255
273 2 0.292787 0.727137 0.944443
275 4 0.325877 0.738446 0.935631
876 2 0.0586357 0.79117 0.969097
53 4 0.487499 0.446497 0.647693
68 4 0.0988733 0.784989 0.924103
878 4 0.0645765 0.785499 0.933984
922 4 0.24 0.837011 0.996221
926 4 0.37256 0.839552 0.915507
356 4 0.402427 0.790456 0.000943438
354 2 0.385775 0.813074 0.978326
701 4 0.0802113 0.834223 0.990137
516 2 0.14858 0.915721 0.000219244
518 4 0.11313 0.921984 0.998101
700 4 0.0870503 0.905011 0.978144
699 2 0.0836303 0.869618 0.98414
1139 4 0.170181 0.839301 0.933152
921 2 0.207245 0.834318 0.981379
923 4 0.17449 0.831626 0.966538
355 4 0.369122 0.835692 0.955708
103 4 0.489071 0.919154 0.940738
333 2 0.00455954 0.988692 0.928875
1307 4 0.357217 0.953756 0.507474
533 4 0.0541117 0.438985 0.997618
1040 4 0.229458 0.263726 0.5374
918 2 0.728978 0.064299 0.0523892
920 4 0.739575 0.0438393 0.0801291
919 4 0.718381 0.0847587 0.0246489
457 4 0.828729 0.0606769 0.996631
389 4 0.84824 0.0614208 0.0325833
387 2 0.861266 0.0307965 0.0464691
370 4 0.00094917 0.0286167 0.0701736
927 2 0.939566 0.0321651 0.0603427
928 4 0.971015 0.047262 0.0694758
1460 4 0.593505 0.16186 0.0518062
961 4 0.662142 0.099234 0.00303429
962 4 0.629126 0.133431 0.0572765
960 2 0.645634 0.116333 0.0301554
422 4 0.805002 0.158457 0.00806024
1049 4 0.956992 0.181706 0.0661574
1408 4 0.999573 0.119374 0.0569037
1458 2 0.576847 0.173715 0.0221011
1459 4 0.560189 0.185569 0.992396
157 4 0.66177 0.241743 0.0303331
521 4 0.689079 0.238888 0.056513
519 2 0.713491 0.213867 0.0653685
420 2 0.784457 0.183693 0.0236015
421 4 0.763912 0.208928 0.0391426
1186 4 0.893845 0.24144 0.0497813
1507 4 0.512197 0.277822 0.999898
158 4 0.667423 0.311852 0.0462861
156 2 0.664596 0.276797 0.038309
641 4 0.630538 0.327776 0.0435077
623 4 0.697717 0.312151 0.0713864
737 4 0.776817 0.309847 0.0265821
1124 4 0.786194 0.348377 0.0199329
735 2 0.752575 0.290905 0.00776793
1185 2 0.87686 0.270894 0.0377656
1187 4 0.859875 0.300348 0.0257503
640 4 0.605274 0.372638 0.0940118
639 2 0.617906 0.350207 0.0687598
621 2 0.695337 0.34643 0.0604493
622 4 0.692957 0.38071 0.0495114
608 4 0.678288 0.381014 0.0120951
1122 2 0.784615 0.375204 0.0439807
1123 4 0.783036 0.402029 0.0680287
940 4 0.880408 0.372521 0.998952
467 4 0.893036 0.398643 0.0199963
465 2 0.923402 0.383814 0.0325829
466 4 0.953769 0.368986 0.0451696
911 4 0.89856 0.473407 0.0491173
153 2 0.54464 0.505123 0.0027528
1072 4 0.533113 0.556136 0.0475818
155 4 0.532316 0.529171 0.0266318
909 2 0.903458 0.493804 0.0784495
1445 4 0.957444 0.58823 0.0494285
1443 2 0.960766 0.564987 0.0220584
1083 2 0.54852 0.650951 0.0598713
1084 4 0.527047 0.638273 0.0859211
1069 4 0.834308 0.573971 0.072078
315 2 0.505623 0.630758 0.307777
1097 4 0.758979 0.668825 0.0773719
1085 4 0.569992 0.66363 0.033821
359 4 0.553309 0.745383 0.0387544
610 4 0.520191 0.672201 0.0117515
1095 2 0.758841 0.698879 0.0574431
1096 4 0.758703 0.728933 0.037515
805 4 0.943277 0.730449 0.0218467
804 2 0.931021 0.720102 0.0541451
1152 2 0.847378 0.942301 0.492616
357 2 0.522761 0.764386 0.0362697
613 4 0.681029 0.782851 0.0278162
612 2 0.698403 0.784697 0.0593618
1464 2 0.502207 0.915765 0.0540979
1230 2 0.650598 0.845776 0.0928523
1231 4 0.617662 0.835773 0.0821034
541 4 0.616416 0.929177 0.0620537
108 2 0.715011 0.891093 0.0772862
110 4 0.713188 0.91004 0.0466585
1302 2 0.775123 0.904948 0.0204924
1303 4 0.803778 0.888032 0.00659383
1393 4 0.976681 0.840735 0.0746978
1392 2 0.954706 0.836387 0.0464377
1394 4 0.932731 0.832039 0.0181783
1465 4 0.526757 0.941939 0.0576521
540 2 0.582764 0.924822 0.0498466
542 4 0.549112 0.920467 0.0376392
964 4 0.633258 0.963517 0.0208856
1304 4 0.746468 0.921864 0.0343914
929 4 0.908116 0.0170679 0.0512106
388 4 0.874292 0.000170913 0.0603559
211 4 0.95534 0.970152 0.00539062
1342 4 0.50723 0.054618 0.173199
514 4 0.676496 0.0658156 0.170213
1365 2 0.727749 0.0770598 0.142896
1367 4 0.691903 0.0758982 0.139139
947 4 0.773878 0.0316127 0.0954193
945 2 0.77387 0.995877 0.100251
462 2 0.981824 0.00933939 0.131695
464 4 0.993101 0.0435039 0.13415
862 4 0.651168 0.128099 0.0889007
861 2 0.67549 0.135322 0.114527