ITEM: TIMESTEP
1674000
ITEM: NUMBER OF ATOMS
1520
ITEM: BOX BOUNDS pp pp pp
-6.9326749999999997e+00 6.9326749999999997e+00
-6.9326749999999997e+00 6.9326749999999997e+00
-6.9326749999999997e+00 6.9326749999999997e+00
ITEM: ATOMS id type xs ys zs
592 4 0.0227251 0.400383 0.339807
633 2 0.100118 0.250369 0.0187343
499 4 0.156444 0.961067 0.143973
498 2 0.134456 0.977458 0.120557
132 2 0.322898 0.0583293 0.0605347
134 4 0.336209 0.0676557 0.0283454
1399 4 0.495273 0.576466 0.41796
302 4 0.201643 0.0644939 0.0414794
961 4 0.209608 0.181422 0.0629878
300 2 0.202512 0.0746194 0.00687983
431 4 0.483374 0.114823 0.0335736
1224 2 0.0413191 0.196518 0.0387971
1225 4 0.0728986 0.199174 0.0560061
1092 2 0.111927 0.195022 0.0703378
1094 4 0.0829215 0.184359 0.0889228
1093 4 0.140932 0.205684 0.0517522
960 2 0.24079 0.174514 0.0797333
870 2 0.278916 0.294722 0.081908
871 4 0.251695 0.318342 0.0831516
962 4 0.271971 0.167606 0.0964789
1446 2 0.48881 0.136092 0.32931
635 4 0.129821 0.263749 0.0341971
872 4 0.306137 0.271102 0.0806634
1477 4 0.334824 0.262864 0.0519679
154 4 0.0569503 0.34981 0.0348345
153 2 0.0490397 0.37022 0.0634932
229 4 0.0370908 0.332151 0.00310041
137 4 0.417586 0.374711 0.996998
840 2 0.0597845 0.451044 0.0722217
842 4 0.0812912 0.479964 0.0709841
432 2 0.24491 0.499001 0.048952
434 4 0.237153 0.471998 0.0263448
1455 2 0.292704 0.567256 0.0603543
1457 4 0.281949 0.533939 0.0517084
433 4 0.252668 0.526004 0.0715589
1103 4 0.400621 0.53387 0.0896139
1101 2 0.381815 0.546135 0.0613946
1102 4 0.363008 0.558398 0.0331756
734 4 0.45729 0.507924 0.063253
733 4 0.481063 0.550324 0.00997343
732 2 0.469177 0.529124 0.0366137
409 4 0.289466 0.607993 0.10091
1456 4 0.303459 0.600572 0.0690002
615 2 0.362887 0.62681 0.0132236
710 4 0.377245 0.650676 0.0742258
708 2 0.403186 0.62642 0.0804767
617 4 0.371213 0.622421 0.0480352
1448 4 0.47135 0.152834 0.302565
227 4 0.193053 0.71119 0.0807846
1460 4 0.474388 0.883925 0.209111
978 2 0.474677 0.717182 0.0365606
262 4 0.469343 0.756711 0.0911867
980 4 0.486998 0.740742 0.0609229
1196 4 0.0722273 0.844234 0.0656417
1194 2 0.0924789 0.815432 0.0578463
1195 4 0.11273 0.78663 0.0500514
1378 4 0.100038 0.772634 0.0173765
131 4 0.381884 0.78367 0.0182766
599 4 0.367065 0.748225 0.0228319
129 2 0.417457 0.783501 0.0123568
1354 4 0.379219 0.864867 0.0730282
1155 2 0.104354 0.904307 0.0558931
1156 4 0.138954 0.906756 0.0657554
1157 4 0.0697547 0.901858 0.0460305
1512 2 0.176629 0.921491 0.0257469
1513 4 0.198396 0.901184 0.0461007
1353 2 0.387313 0.875659 0.106473
591 2 0.00694348 0.425056 0.360847
537 2 0.0299937 0.243659 0.209854
522 2 0.0830952 0.956487 0.998186
146 4 0.258511 0.869904 0.454465
500 4 0.112469 0.99385 0.0971409
523 4 0.0748721 0.925143 0.0140112
1514 4 0.154862 0.941797 0.0053937
1415 4 0.220357 0.0890361 0.0580928
133 4 0.309586 0.0490024 0.0927257
1414 4 0.274928 0.0598406 0.0951221
1413 2 0.247643 0.074437 0.0766068
155 4 0.0411291 0.39063 0.0921504
419 4 0.0848325 0.365165 0.145307
841 4 0.0382775 0.422125 0.0734596
1304 4 0.198829 0.466261 0.196838
479 4 0.222699 0.419054 0.0994808
477 2 0.213106 0.433806 0.130957
518 4 0.476729 0.472064 0.107198
516 2 0.443067 0.483786 0.101735
517 4 0.409405 0.495509 0.0962708
459 2 0.112379 0.623653 0.11038
460 4 0.109772 0.596188 0.133602
1182 2 0.187276 0.57634 0.175904
1184 4 0.16095 0.555638 0.189274
408 2 0.25698 0.606494 0.116493
410 4 0.224494 0.604993 0.132074
1183 4 0.213601 0.597043 0.162534
456 2 0.29612 0.842489 0.472358
709 4 0.429127 0.602163 0.0867271
461 4 0.114986 0.651118 0.0871582
226 4 0.129074 0.679888 0.0694504
225 2 0.161064 0.695539 0.0751175
261 2 0.435528 0.745583 0.0969409
712 4 0.0522444 0.845589 0.0978506
713 4 0.00681763 0.799875 0.130226
711 2 0.0295309 0.822732 0.114039
130 4 0.453028 0.783333 0.00643806
597 2 0.373526 0.730045 0.0532968
598 4 0.379988 0.711865 0.0837622
263 4 0.401713 0.734453 0.102695
794 4 0.0284669 0.895321 0.342169
314 4 0.222685 0.905994 0.155363
1355 4 0.395404 0.886452 0.139914
1052 4 0.0189796 0.92386 0.0924459
1028 4 0.0215797 0.951404 0.0676209
1026 2 0.0499164 0.966469 0.0840668
1027 4 0.0782533 0.981534 0.100513
313 4 0.272585 0.957602 0.148415
312 2 0.247635 0.931798 0.151889
204 2 0.140457 0.0343079 0.235174
206 4 0.166853 0.0122273 0.245949
205 4 0.114061 0.0563884 0.224397
151 4 0.229284 0.0261707 0.271197
754 4 0.386464 0.0624231 0.188524
753 2 0.380234 0.0820398 0.218134
755 4 0.374004 0.101656 0.247745
581 4 0.130746 0.214449 0.174624
579 2 0.0976731 0.225087 0.184288
580 4 0.064599 0.235724 0.19395
1222 4 0.147891 0.190211 0.246226
539 4 0.0601378 0.259414 0.221838
360 2 0.0483861 0.316712 0.176832
362 4 0.0397779 0.281793 0.179462
361 4 0.0569951 0.351632 0.174201
81 2 0.284369 0.360825 0.262772
400 4 0.228054 0.285994 0.207237
83 4 0.285012 0.324863 0.265373
401 4 0.275858 0.289223 0.261145
399 2 0.251956 0.287608 0.234191
417 2 0.104707 0.387516 0.165449
418 4 0.124583 0.409866 0.185594
1412 4 0.106891 0.406778 0.214517
82 4 0.283726 0.396787 0.26017
685 4 0.343014 0.376127 0.13364
684 2 0.346235 0.388454 0.167375
1421 4 0.384046 0.386748 0.191999
686 4 0.349458 0.40078 0.20111
1419 2 0.396732 0.395611 0.224571
478 4 0.203512 0.448558 0.162433
1302 2 0.18517 0.497465 0.185001
928 4 0.0716755 0.614683 0.199297
1476 2 0.350075 0.251351 0.0213845
929 4 0.126408 0.571062 0.181879
927 2 0.0990414 0.592872 0.190588
1303 4 0.171512 0.528669 0.173163
1285 4 0.266761 0.102205 0.48302
989 4 0.491411 0.601591 0.264435
1309 4 0.308341 0.962179 0.495342
507 2 0.156209 0.635924 0.235476
90 2 0.33927 0.604239 0.204693
91 4 0.316285 0.585791 0.183913
92 4 0.362254 0.622686 0.225472
1275 2 0.378099 0.652057 0.280072
1276 4 0.363807 0.625713 0.26002
922 4 0.340471 0.0398589 0.00289927
508 4 0.179766 0.662191 0.228027
740 4 0.251751 0.764134 0.194298
738 2 0.248154 0.72827 0.193183
739 4 0.244558 0.692406 0.192068
760 4 0.0513488 0.764406 0.19843
1226 4 0.00973999 0.193862 0.0215892
698 4 0.0171657 0.933918 0.215154
1316 4 0.0954847 0.0618335 0.317271
697 4 0.0254618 0.984023 0.266361
1314 2 0.0678635 0.0559257 0.33969
1315 4 0.040243 0.0500173 0.362109
150 2 0.21128 0.0108804 0.298445
152 4 0.193274 0.99559 0.325692
233 4 0.291004 0.0622514 0.331203
238 4 0.458207 0.0413753 0.355285
1055 4 0.470168 0.00307343 0.36296
388 4 0.472342 0.0175857 0.255579
1221 2 0.174793 0.177854 0.266817
1223 4 0.201695 0.165498 0.287409
36 1 0.225675 0.140655 0.314595
39 3 0.232304 0.172142 0.305399
37 3 0.252336 0.121868 0.308517
40 3 0.200161 0.129104 0.297437
231 2 0.311039 0.0823936 0.308991
232 4 0.331073 0.102535 0.286781
542 4 0.359445 0.119047 0.303275
540 2 0.394373 0.125301 0.309706
541 4 0.429301 0.131554 0.316137
335 4 0.0613933 0.211435 0.308261
334 4 0.112599 0.191335 0.261618
333 2 0.0869958 0.201385 0.284939
66 2 0.0291433 0.284519 0.281655
67 4 0.0332025 0.277535 0.246511
68 4 0.025084 0.291504 0.3168
1110 2 0.108104 0.379574 0.316351
1219 4 0.343604 0.28206 0.317989
1411 4 0.145877 0.398859 0.274675
1410 2 0.126385 0.402818 0.244595
1112 4 0.136504 0.401208 0.311271
1347 2 0.47515 0.409324 0.235135
1348 4 0.444177 0.412279 0.253368
1420 4 0.409417 0.404475 0.257144
480 2 0.0871999 0.452056 0.324866
481 4 0.0674379 0.481916 0.320596
436 4 0.252045 0.452543 0.33485
1066 4 0.284515 0.459654 0.317141
1065 2 0.312847 0.479538 0.307028
1067 4 0.34118 0.499423 0.296915
420 2 0.379751 0.506805 0.272481
421 4 0.414071 0.497607 0.278639
979 4 0.462354 0.693623 0.0121984
497 4 0.147185 0.566064 0.31413
495 2 0.127679 0.586805 0.291998
422 4 0.34543 0.516003 0.266323
509 4 0.132652 0.609656 0.242924
496 4 0.108175 0.607545 0.269866
1277 4 0.392391 0.6784 0.300125
759 2 0.0380645 0.780905 0.227614
761 4 0.0247796 0.797404 0.256799
1190 4 0.399655 0.684615 0.336143
1188 2 0.433592 0.696385 0.332963
1189 4 0.467531 0.708156 0.329783
1345 4 0.055705 0.782638 0.332612
715 4 0.279997 0.887884 0.255367
405 2 0.396767 0.790715 0.248364
407 4 0.38498 0.774576 0.278381
406 4 0.408554 0.806854 0.218346
178 4 0.0849415 0.9555 0.321981
716 4 0.277631 0.885228 0.327401
714 2 0.278814 0.886556 0.291384
1458 2 0.497561 0.8727 0.234357
144 2 0.235434 0.871142 0.426783
696 2 0.021314 0.95897 0.240758
177 2 0.0982141 0.939076 0.351213
179 4 0.111488 0.922653 0.380445
808 4 0.197055 0.9829 0.362446
807 2 0.188972 0.0154816 0.375617
809 4 0.180888 0.0480638 0.388789
353 4 0.292923 0.0282639 0.349316
351 2 0.321443 0.0124105 0.364669
282 2 0.364 0.0616486 0.420849
283 4 0.365397 0.0860809 0.394363
237 2 0.440062 0.0712698 0.346483
1339 4 0.302305 0.000170447 0.494979
38 3 0.218872 0.13951 0.347341
494 4 0.251728 0.149492 0.365042
492 2 0.248034 0.122367 0.388515
239 4 0.421917 0.101164 0.337681
963 2 0.468119 0.122106 0.414664
964 4 0.498371 0.12573 0.395386
629 4 0.427589 0.201492 0.364004
59 4 0.0087805 0.235393 0.382244
57 2 0.027074 0.266059 0.387278
1111 4 0.0797027 0.357942 0.321431
905 4 0.228469 0.319908 0.400346
1218 2 0.315196 0.289035 0.339077
1220 4 0.286787 0.296009 0.360166
903 2 0.261096 0.323915 0.385519
904 4 0.293723 0.327922 0.370691
628 4 0.417466 0.272819 0.367419
627 2 0.422528 0.237156 0.365712
58 4 0.0453667 0.296726 0.392315
1270 4 0.378159 0.392809 0.343375
1269 2 0.40532 0.415941 0.338124
482 4 0.106963 0.422195 0.329135
437 4 0.186089 0.450367 0.363948
1408 4 0.173339 0.424273 0.38666
435 2 0.219067 0.451455 0.349399
1407 2 0.175499 0.432581 0.421685
1271 4 0.432482 0.439073 0.332874
1278 2 0.449456 0.488933 0.362549
1279 4 0.448435 0.47045 0.331602
1280 4 0.450478 0.507417 0.393496
749 4 0.189499 0.67425 0.435905
747 2 0.1594 0.675443 0.41608
748 4 0.129301 0.676637 0.396256
442 4 0.440872 0.510791 0.489046
457 4 0.286448 0.855893 0.440308
1344 2 0.0389876 0.75072 0.331147
1346 4 0.0222706 0.718802 0.329682
145 4 0.212355 0.872379 0.399102
688 4 0.398053 0.925053 0.377656
687 2 0.429485 0.907397 0.376799
689 4 0.460917 0.889742 0.375943
1256 4 0.481999 0.912207 0.35348
352 4 0.349963 0.996558 0.380021
743 4 0.365632 0.9252 0.402185
742 4 0.350741 0.99435 0.416265
741 2 0.358186 0.959775 0.409225
1147 4 0.0865362 0.0607093 0.466554
1338 2 0.32024 0.0292655 0.483479
1284 2 0.258181 0.0815743 0.454715
1340 4 0.338178 0.0583599 0.471979
284 4 0.362602 0.0372166 0.447337
281 4 0.373253 0.0434236 0.486027
279 2 0.406521 0.0488214 0.498859
1146 2 0.0926847 0.0959268 0.471281
1148 4 0.0988322 0.131144 0.476008
493 4 0.244339 0.0952415 0.411989
1286 4 0.249602 0.0609444 0.426409
100 4 0.41236 0.14497 0.419343
965 4 0.437863 0.118483 0.433947
1384 4 0.0797018 0.197821 0.454808
1317 2 0.325514 0.2216 0.436093
1318 4 0.312676 0.255248 0.434252
1319 4 0.338352 0.187952 0.437935
99 2 0.393791 0.171774 0.434744
101 4 0.375223 0.198577 0.450146
985 4 0.141492 0.80908 0.457829
1383 2 0.0651409 0.212399 0.484403
147 2 0.446477 0.299507 0.448308
149 4 0.423476 0.306982 0.42156
387 2 0.486862 0.00719755 0.224247
148 4 0.469478 0.292032 0.475057
45 3 0.00696404 0.965955 0.0385448
585 2 0.311122 0.400492 0.441273
587 4 0.321029 0.415751 0.472408
586 4 0.301213 0.385233 0.410138
1409 4 0.177659 0.440889 0.45671
1272 2 0.248331 0.437857 0.461253
1274 4 0.213341 0.445386 0.456849
1273 4 0.283322 0.430326 0.465657
106 4 0.296257 0.442295 0.497352
163 4 0.343505 0.508934 0.440443
443 4 0.378634 0.500423 0.454108
4 3 0.496678 0.547306 0.096248
236 4 0.280662 0.556874 0.412778
164 4 0.292598 0.559441 0.448138
234 2 0.273762 0.592261 0.413553
441 2 0.409753 0.505607 0.471578
162 2 0.318051 0.534187 0.44429
1313 4 0.0178043 0.581986 0.443993
1311 2 0.0497344 0.570768 0.431541
1312 4 0.0816647 0.559549 0.419089
544 4 0.148506 0.620918 0.443965
543 2 0.126015 0.601491 0.423541
545 4 0.103523 0.582064 0.403117
882 2 0.2441 0.668453 0.455537
235 4 0.266863 0.627648 0.414329
884 4 0.240033 0.655958 0.421956
303 2 0.150596 0.674901 0.496453
305 4 0.17246 0.6709 0.468056
883 4 0.248167 0.680949 0.489119
140 4 0.108708 0.0557406 0.0141663
984 2 0.148883 0.794585 0.49001
429 2 0.495713 0.0893366 0.0559028
244 4 0.315177 0.383922 0.489389
953 4 0.477015 0.0975419 0.999787
1031 4 0.427486 0.604701 0.00576202
717 2 0.0140337 0.620418 0.991015
577 4 0.0794033 0.19709 0.535504
280 4 0.439787 0.0542199 0.511689
576 2 0.0540287 0.178785 0.553435
578 4 0.0286545 0.160481 0.571365
310 4 0.0993354 0.167096 0.527458
309 2 0.132811 0.172665 0.539657
311 4 0.166286 0.178234 0.551855
822 2 0.301573 0.191051 0.532294
824 4 0.290572 0.212261 0.559305
823 4 0.312574 0.169843 0.505284
1175 4 0.456121 0.762782 0.932008
1091 4 0.0938488 0.276626 0.513356
1089 2 0.11571 0.305241 0.511444
1511 4 0.225254 0.238994 0.639235
1045 4 0.492563 0.280997 0.564772
1044 2 0.480909 0.298286 0.53535
1090 4 0.137571 0.333856 0.509532
245 4 0.364916 0.386549 0.541549
243 2 0.340046 0.385236 0.515469
1307 4 0.26155 0.444641 0.567517
105 2 0.293792 0.45287 0.53174
107 4 0.291327 0.463444 0.566128
1233 2 0.0199185 0.554619 0.55252
1235 4 0.00301098 0.522902 0.555456
836 4 0.0112494 0.468318 0.904659
25 3 0.458162 0.596686 0.568418
304 4 0.128732 0.678903 0.524849
338 4 0.207522 0.721511 0.575794
954 2 0.18272 0.738086 0.52927
248 4 0.472481 0.727577 0.588643
955 4 0.150522 0.741291 0.513351
986 4 0.156274 0.780088 0.522192
771 2 0.315683 0.849926 0.555061
773 4 0.308355 0.860419 0.521348
772 4 0.32301 0.839434 0.588775
170 4 0.407237 0.80344 0.531128
169 4 0.400993 0.856476 0.579602
168 2 0.404115 0.829957 0.555365
610 4 0.442375 0.876075 0.916364
1308 2 0.312725 0.957361 0.53081
1100 4 0.352718 0.96092 0.564795
1310 4 0.317107 0.952543 0.566278
780 2 0.500262 0.00523255 0.516846
781 4 0.471733 0.989963 0.500929
1227 2 0.0574252 0.0710969 0.650113
1229 4 0.0294152 0.0501505 0.658894
1228 4 0.0854359 0.0920431 0.641334
1461 2 0.128054 0.0836739 0.615934
1462 4 0.135849 0.0958636 0.582903
1463 4 0.120257 0.0714843 0.648964
1509 2 0.250647 0.223601 0.618773
1510 4 0.276039 0.208207 0.59831
646 4 0.373974 0.182875 0.641763
645 2 0.396909 0.2048 0.624626
1251 2 0.478444 0.238593 0.601862
647 4 0.419844 0.226723 0.607488
1252 4 0.45268 0.214366 0.608908
1417 4 0.15503 0.371464 0.665947
1416 2 0.177309 0.394881 0.649953
1418 4 0.199587 0.418297 0.633959
1306 4 0.200266 0.415934 0.592452
643 4 0.460237 0.376649 0.60373
644 4 0.412714 0.370776 0.657663
642 2 0.436476 0.373713 0.630697
1305 2 0.230908 0.430288 0.579984
354 2 0.34561 0.420859 0.661262
356 4 0.367896 0.407138 0.636454
878 4 0.317308 0.52631 0.586006
876 2 0.316194 0.531104 0.621729
877 4 0.315079 0.5359 0.657453
1395 2 0.203697 0.644455 0.629972
1396 4 0.22887 0.62951 0.651028
1498 4 0.257497 0.617195 0.626772
1497 2 0.288449 0.633242 0.635985
1499 4 0.3194 0.64929 0.645198
440 4 0.349918 0.66037 0.636026
439 4 0.406088 0.654632 0.591153
438 2 0.378003 0.657501 0.61359
22 3 0.439542 0.608098 0.617614
24 3 0.488209 0.626512 0.602423
21 1 0.457189 0.619562 0.591966
23 3 0.442569 0.647322 0.580322
956 4 0.214918 0.734881 0.545189
1397 4 0.178524 0.659401 0.608915
336 2 0.24094 0.721283 0.589343
337 4 0.274358 0.721056 0.602892
246 2 0.490525 0.699228 0.57556
1385 4 0.0505805 0.226978 0.513998
1241 4 0.300382 0.816125 0.613149
1239 2 0.277625 0.805023 0.638826
524 4 0.0913178 0.98783 0.982361
452 4 0.46527 0.907106 0.645517
450 2 0.486669 0.930563 0.628419
1099 4 0.408471 0.930645 0.599097
1098 2 0.380595 0.945782 0.581946
569 4 0.0223217 0.0193905 0.676967
850 4 0.263418 0.0358598 0.702915
849 2 0.267321 0.00239496 0.715771
566 4 0.351378 0.0518415 0.689528
564 2 0.379609 0.0663349 0.706655
967 4 0.0217636 0.147295 0.715358
652 4 0.0625206 0.0739647 0.966372
1209 2 0.143497 0.00818581 0.702162
1210 4 0.112035 0.00221269 0.718739
565 4 0.40784 0.0808282 0.723782
918 2 0.430368 0.147323 0.726656
920 4 0.428325 0.111341 0.7279
919 4 0.432411 0.183306 0.725413
77 4 0.441758 0.218685 0.744384
1234 4 0.0368263 0.586335 0.549583
1115 4 0.254371 0.113472 0.796547
1268 4 0.350159 0.299301 0.732004
1085 4 0.435806 0.371469 0.784126
75 2 0.475846 0.208049 0.739349
1126 4 0.134045 0.300813 0.714971
1127 4 0.1314 0.250628 0.663239
1125 2 0.132722 0.27572 0.689106
1489 4 0.110734 0.313107 0.687338
1095 2 0.0123301 0.377757 0.695279
1096 4 0.0152151 0.375973 0.73118
526 4 0.0401446 0.368546 0.75584
1490 4 0.115609 0.381188 0.66404
1488 2 0.113171 0.347149 0.675688
640 4 0.136624 0.388052 0.698098
639 2 0.137406 0.41194 0.725103
355 4 0.323324 0.43458 0.686072
941 4 0.29477 0.459408 0.676204
939 2 0.284998 0.462977 0.710732
940 4 0.275226 0.466546 0.74526
9 3 0.34859 0.172341 0.942435
1007 4 0.303909 0.56451 0.680397
1005 2 0.285319 0.576653 0.708812
1173 2 0.457879 0.736373 0.9565
271 4 0.132771 0.611 0.689863
270 2 0.139081 0.625117 0.72244
272 4 0.145395 0.63924 0.755028
830 4 0.183833 0.653225 0.760322
1006 4 0.266729 0.588797 0.737226
160 4 0.0603712 0.705068 0.746296
1036 4 0.0463347 0.736596 0.736456
159 2 0.0887089 0.685369 0.756753
828 2 0.188704 0.680217 0.736901
829 4 0.19358 0.707199 0.71348
889 4 0.323372 0.721768 0.73826
819 2 0.451385 0.70323 0.691484
820 4 0.457746 0.672884 0.673068
1035 2 0.0553041 0.771412 0.733664
1037 4 0.064273 0.806228 0.730873
444 2 0.206242 0.753923 0.716422
446 4 0.20213 0.733714 0.746005
445 4 0.210353 0.774131 0.686839
1240 4 0.254867 0.793922 0.664503
821 4 0.445025 0.733575 0.709899
1389 2 0.112212 0.932864 0.704333
1390 4 0.146865 0.924099 0.699567
1216 4 0.163089 0.921192 0.668135
339 2 0.22152 0.839452 0.688383
340 4 0.230223 0.805026 0.694676
341 4 0.212817 0.873877 0.68209
1403 4 0.415953 0.922469 0.731811
166 4 0.416436 0.938055 0.772859
1401 2 0.431501 0.908693 0.702333
1402 4 0.447049 0.894918 0.672856
568 4 0.0452793 0.958707 0.708466
567 2 0.0338007 0.989049 0.692717
1391 4 0.0775583 0.941628 0.709099
1215 2 0.198513 0.916846 0.673292
1217 4 0.233938 0.912498 0.678448
983 4 0.270902 0.880612 0.692166
981 2 0.274458 0.908513 0.714735
982 4 0.278013 0.936412 0.737304
851 4 0.271224 0.96893 0.728627
1283 4 0.489722 0.931632 0.687413
898 4 0.111748 0.93905 0.941876
660 2 0.0924678 0.0441332 0.812065
661 4 0.0972298 0.0246588 0.84204
174 2 0.0209405 0.101638 0.792658
969 2 0.485795 0.876903 0.948837
175 4 0.0116173 0.0881648 0.760535
1211 4 0.174961 0.0141582 0.685585
1432 4 0.209065 0.183986 0.773397
1114 4 0.224564 0.160452 0.750655
1431 2 0.194804 0.19977 0.802516
265 4 0.337367 0.167438 0.813062
1433 4 0.180544 0.215555 0.831635
725 4 0.182718 0.239711 0.764168
1113 2 0.239468 0.136962 0.773601
266 4 0.400431 0.201893 0.806924
264 2 0.368898 0.184666 0.809993
724 4 0.138897 0.290307 0.791025
723 2 0.160807 0.265009 0.777597
1266 2 0.324491 0.295084 0.756979
1267 4 0.298822 0.290867 0.781956
35 3 0.29544 0.326394 0.787689
31 1 0.265894 0.3362 0.798164
32 3 0.242424 0.318444 0.78285
1370 4 0.309886 0.452311 0.906695
1083 2 0.458116 0.348935 0.8013
1084 4 0.480424 0.326401 0.818473
525 2 0.0677881 0.391349 0.751798
527 4 0.0954308 0.414151 0.747755
867 2 0.101389 0.471691 0.807099
868 4 0.127513 0.487289 0.787743
869 4 0.0752636 0.456095 0.826456
257 4 0.0363476 0.461074 0.831377
641 4 0.138187 0.435827 0.752106
826 4 0.20227 0.56584 0.771587
1259 4 0.0744402 0.587466 0.798135
161 4 0.117053 0.665664 0.767211
667 4 0.153777 0.66595 0.784567
1258 4 0.128032 0.635342 0.791889
1257 2 0.101234 0.6114 0.795012
680 4 0.155461 0.646767 0.820363
825 2 0.184892 0.5965 0.779231
827 4 0.16751 0.627173 0.786876
116 4 0.190089 0.657853 0.800982
114 2 0.225355 0.665377 0.801824
115 4 0.260611 0.672901 0.802664
913 4 0.281133 0.654706 0.780691
1057 4 0.410574 0.629594 0.849951
316 4 0.0184895 0.771794 0.82825
666 2 0.151769 0.693949 0.807217
668 4 0.14975 0.721947 0.829854
888 2 0.309064 0.751908 0.751944
912 2 0.310952 0.672733 0.789976
172 4 0.339167 0.689708 0.838067
1058 4 0.461007 0.648088 0.801824
1056 2 0.43579 0.638841 0.825888
1162 4 0.0680448 0.803066 0.765828
1161 2 0.0728651 0.827585 0.791828
890 4 0.294755 0.782048 0.765629
326 4 0.496712 0.817597 0.856859
324 2 0.472783 0.790874 0.853154
325 4 0.448855 0.764152 0.849449
1163 4 0.0776865 0.852103 0.817829
18 3 0.0844105 0.884107 0.83662
17 3 0.135464 0.897387 0.849095
404 4 0.352488 0.874376 0.808369
167 4 0.364469 0.888132 0.775847
165 2 0.390452 0.913094 0.774354
181 4 0.203666 0.935456 0.750484
180 2 0.206057 0.967304 0.767231
182 4 0.208447 0.999151 0.783979
1022 4 0.446083 0.958584 0.789386
1020 2 0.460761 0.945228 0.819496
662 4 0.0877062 0.0636071 0.782091
551 4 0.370993 0.0341485 0.926788
550 4 0.406857 0.0280968 0.864508
549 2 0.388925 0.0311225 0.895648
242 4 0.443386 0.0355143 0.860472
240 2 0.466754 0.0252797 0.885959
273 2 0.0230865 0.129252 0.871654
275 4 0.0392755 0.153442 0.892942
320 4 0.103126 0.190838 0.926816
318 2 0.121312 0.188517 0.957869
1371 2 0.373746 0.245654 0.876314
1373 4 0.367296 0.222549 0.90324
34 3 0.263303 0.331368 0.831177
33 3 0.261393 0.368571 0.790967
993 2 0.313892 0.283713 0.828451
994 4 0.347617 0.28226 0.841137
1372 4 0.380195 0.268757 0.849389
274 4 0.00689772 0.105061 0.850367
999 2 0.182155 0.359781 0.896202
1001 4 0.192371 0.389292 0.87817
677 4 0.204977 0.418528 0.895937
995 4 0.280168 0.285167 0.815762
201 2 0.146219 0.508623 0.912188
675 2 0.215937 0.430686 0.928068
1369 4 0.331709 0.433144 0.840679
1368 2 0.320797 0.442728 0.873686
256 4 0.0286965 0.53127 0.816693
255 2 0.0325211 0.496172 0.824035
203 4 0.141146 0.534052 0.887126
1160 4 0.111746 0.602837 0.955214
678 2 0.162208 0.626317 0.849286
679 4 0.168953 0.605862 0.878208
572 4 0.125937 0.692072 0.898923
570 2 0.116959 0.722333 0.91636
914 4 0.340774 0.690762 0.799261
171 2 0.348032 0.6625 0.860013
173 4 0.356897 0.635292 0.881958
1484 4 0.0504689 0.846387 0.931641
403 4 0.309893 0.849406 0.860941
19 3 0.126385 0.85678 0.814352
16 1 0.115202 0.872118 0.841914
20 3 0.114844 0.851042 0.867104
899 4 0.134159 0.915785 0.877393
600 2 0.175978 0.966307 0.837139
601 4 0.185953 0.971576 0.802887
602 4 0.166004 0.961038 0.87139
402 2 0.331191 0.861891 0.834655
897 2 0.122953 0.927418 0.909635
609 2 0.443168 0.902069 0.891381
1021 4 0.475441 0.931869 0.849602
611 4 0.443952 0.928061 0.866403
653 4 0.00918757 0.118432 0.946883
651 2 0.0358547 0.0961983 0.956628
971 4 0.491986 0.876164 0.913318
1046 4 0.469256 0.315574 0.505926
189 2 0.182476 0.0440058 0.922728
190 4 0.180253 0.0315384 0.888964
923 4 0.362399 0.0682299 0.940323
921 2 0.351435 0.0540442 0.971611
1097 4 0.00944516 0.379541 0.659378
952 4 0.454724 0.0754093 0.934864
241 4 0.490122 0.0150453 0.911446
703 4 0.495115 0.0136004 0.947385
1483 4 0.113996 0.827307 0.903325
386 4 0.123752 0.083027 0.990297
384 2 0.112095 0.115343 0.979332
385 4 0.100438 0.14766 0.968369
191 4 0.184699 0.0564735 0.956492
699 2 0.237095 0.165884 0.973496
700 4 0.27191 0.15672 0.971421
1247 4 0.338929 0.132679 0.93575
1245 2 0.30557 0.146359 0.936416
951 2 0.46587 0.0864758 0.967325
301 4 0.20338 0.0847446 0.97228
634 4 0.0704143 0.236988 0.0032726
1377 2 0.0912722 0.772715 0.982397
319 4 0.139498 0.186196 0.988922
701 4 0.202279 0.175049 0.975571
184 4 0.336911 0.221118 0.924815
6 1 0.373436 0.191255 0.95447
7 3 0.399879 0.17199 0.959976
10 3 0.364192 0.205265 0.982703
1246 4 0.272211 0.16004 0.937082
8 3 0.381675 0.214825 0.932189
323 4 0.0169314 0.292181 0.774842
1000 4 0.171937 0.330271 0.914233
185 4 0.291045 0.276694 0.927874
183 2 0.313978 0.248907 0.926345
199 4 0.299889 0.308097 0.90421
1171 4 0.498243 0.817742 0.724937
198 2 0.3203 0.335105 0.916635
1478 4 0.365326 0.23984 0.990802
230 4 0.0888701 0.355916 0.958877
228 2 0.0629801 0.344033 0.980988
136 4 0.356304 0.359062 0.962339
200 4 0.340711 0.362113 0.92906
135 2 0.386945 0.366887 0.979668
202 4 0.151292 0.483195 0.937249
676 4 0.226898 0.442845 0.9602
690 2 0.471217 0.477184 0.927275
692 4 0.47294 0.481181 0.963073
1159 4 0.0593424 0.652365 0.956788
718 4 0.0358713 0.624104 0.962555
1158 2 0.0855444 0.627601 0.956001
560 4 0.0610103 0.682131 0.932787
1249 4 0.355653 0.612184 0.95151
1248 2 0.354636 0.60662 0.915896
616 4 0.354561 0.631201 0.978413
1029 2 0.459172 0.590586 0.995903
138 2 0.106418 0.0343377 0.985234
558 2 0.0498246 0.703764 0.959383
559 4 0.0386391 0.725395 0.98598
571 4 0.10798 0.752594 0.933798
1379 4 0.0825066 0.772796 0.947417
1427 4 0.373296 0.719538 0.952806
1250 4 0.353618 0.601055 0.880282
1425 2 0.33956 0.716618 0.965205
1174 4 0.459636 0.709964 0.980993
43 3 0.0195289 0.953914 0.987106
970 4 0.479604 0.877644 0.984354
1336 4 0.0264655 0.75404 0.999422
1482 2 0.0822324 0.836846 0.917483
1030 4 0.490857 0.576471 0.986045
1426 4 0.305824 0.713697 0.977604
176 4 0.0302637 0.115112 0.824783
892 4 0.492723 0.977579 0.829015
691 4 0.469495 0.473187 0.891477
139 4 0.104128 0.0129355 0.956302
269 4 0.482917 0.452359 0.601923
458 4 0.305793 0.829085 0.504407
1507 4 0.691061 0.0565037 0.0247049
1506 2 0.68536 0.0606147 0.0600746
859 4 0.518831 0.734149 0.453038
197 4 0.00240732 0.874762 0.436729
430 4 0.508053 0.0638488 0.0782312
779 4 0.747281 0.137674 0.020261
1459 4 0.520736 0.861475 0.259603
865 4 0.501775 0.723244 0.31991
1039 4 0.551622 0.790194 0.492131
802 4 0.715398 0.22874 0.0627836
801 2 0.68497 0.224184 0.0815935
777 2 0.734066 0.169881 0.0296668
778 4 0.720851 0.202089 0.039072
109 4 0.76375 0.225213 0.0938754
108 2 0.78089 0.240795 0.0662378
110 4 0.798029 0.256377 0.038601
590 4 0.867274 0.247602 0.0538076
655 4 0.866476 0.229566 0.0876048
864 2 0.502967 0.712709 0.354377
127 4 0.559372 0.324617 0.00362165
839 4 0.548305 0.440363 0.0823065
251 4 0.752454 0.411326 0.0258591
55 4 0.992249 0.992288 0.276053
837 2 0.524573 0.467491 0.0834476
1444 4 0.695801 0.452948 0.0571022
125 4 0.656368 0.452156 0.0559292
1443 2 0.701756 0.483731 0.0392852
1445 4 0.70771 0.514512 0.0214685
1382 4 0.84755 0.36476 0.0728569
1491 2 0.850841 0.406393 0.0149344
1492 4 0.841194 0.388696 0.0448367
297 2 0.739325 0.0358477 0.489982
123 2 0.634524 0.471594 0.0770348
737 4 0.725527 0.54775 0.0213785
1237 4 0.829323 0.528723 0.0985425
343 4 0.852586 0.558267 0.103837
721 4 0.811215 0.599142 0.0163399
720 2 0.793443 0.630237 0.0121251
722 4 0.775671 0.661331 0.00791128
1231 4 0.754926 0.690726 0.0116397
719 4 0.992197 0.616732 0.0194753
775 4 0.573421 0.725314 0.0958313
5 3 0.503487 0.576691 0.141403
1230 2 0.72143 0.703884 0.0139504
1232 4 0.687935 0.717042 0.0162612
1024 4 0.741305 0.74076 0.0405449
1517 4 0.774402 0.852492 0.0022666
943 4 0.896363 0.870344 0.0549761
942 2 0.879568 0.900972 0.0639383
1327 4 0.92138 0.846959 0.0384764
1326 2 0.94717 0.867526 0.0239079
1328 4 0.97296 0.888094 0.00933943
1495 4 0.760752 0.964619 0.0682081
1494 2 0.794898 0.953193 0.0662286
1496 4 0.829044 0.941768 0.0642504
42 3 0.998139 0.916294 0.0197502
998 4 0.970506 0.608122 0.289345
44 3 0.967092 0.957329 0.00270207
41 1 0.997983 0.948589 0.0121518
619 4 0.547754 0.0938599 0.0883744
620 4 0.571247 0.0503448 0.140873
618 2 0.559501 0.0721025 0.114624
683 4 0.602948 0.0356628 0.151213
1508 4 0.679659 0.064726 0.0954439
112 4 0.69309 0.0485054 0.124263
111 2 0.7107 0.0301177 0.1498
875 4 0.810004 0.0561516 0.0890688
873 2 0.796697 0.0382186 0.117384
1322 4 0.687758 0.0961402 0.171999
1123 4 0.89081 0.0631207 0.115907
1122 2 0.870864 0.0431516 0.0934612
1124 4 0.850918 0.023182 0.0710161
991 4 0.889037 0.179789 0.172259
803 4 0.654542 0.219628 0.100403
1142 4 0.636827 0.295134 0.154785
656 4 0.907358 0.171706 0.0740954
654 2 0.886917 0.200636 0.0808503
589 4 0.890062 0.313036 0.0738271
588 2 0.878668 0.280319 0.0638176
787 4 0.563683 0.436903 0.116829
786 2 0.595451 0.421484 0.124143
788 4 0.627219 0.406066 0.131457
843 2 0.664348 0.375671 0.114917
844 4 0.629253 0.368147 0.11841
563 4 0.733932 0.413711 0.11545
561 2 0.75858 0.398946 0.137242
562 4 0.783228 0.38418 0.159033
1380 2 0.823437 0.370059 0.0991406
1381 4 0.799322 0.37536 0.125425
838 4 0.500842 0.494617 0.0845896
976 4 0.715749 0.420785 0.185492
192 2 0.951542 0.419172 0.141811
194 4 0.935074 0.444659 0.122326
2 3 0.529836 0.530121 0.135537
1 1 0.518418 0.556989 0.119775
3 3 0.544177 0.573 0.105633
124 4 0.612681 0.491033 0.0981409
1238 4 0.766316 0.495429 0.0874379
1236 2 0.797819 0.512076 0.09299
342 2 0.863425 0.584513 0.0816087
511 4 0.801261 0.64371 0.141293
344 4 0.874262 0.610759 0.0593802
774 2 0.603756 0.74073 0.107773
776 4 0.634091 0.756146 0.119713
1070 4 0.735227 0.735587 0.163064
1023 2 0.746305 0.764592 0.067143
959 4 0.669744 0.7652 0.123228
957 2 0.682335 0.796949 0.111658
1186 4 0.678822 0.77477 0.157366
1367 4 0.756796 0.782796 0.130723
1365 2 0.768878 0.816769 0.130243
1025 4 0.751306 0.788425 0.093741
1068 2 0.767 0.723894 0.175478
1357 4 0.531641 0.913816 0.139518
1356 2 0.515762 0.913371 0.171891
958 4 0.694924 0.828699 0.100087
327 2 0.683755 0.884713 0.127061
329 4 0.692589 0.850017 0.131365
1366 4 0.78096 0.850743 0.129764
1138 4 0.956706 0.854183 0.148148
1051 4 0.975541 0.876584 0.125304
1137 2 0.933124 0.880825 0.154025
371 4 0.573065 0.957144 0.15177
369 2 0.575072 0.982087 0.125805
370 4 0.57708 0.00703144 0.0998395
328 4 0.674921 0.91941 0.122756
874 4 0.78339 0.0202848 0.145699
944 4 0.862774 0.9316 0.0728998
157 4 0.849738 0.992524 0.16671
790 4 0.981523 0.961557 0.149756
789 2 0.983015 0.993634 0.166165
389 4 0.501382 0.996811 0.192916
735 2 0.757624 0.562515 0.0286049
29 3 0.605269 0.0591637 0.271819
681 2 0.621977 0.019616 0.177305
113 4 0.72831 0.0117308 0.175339
1435 4 0.755368 0.994692 0.162873
1290 2 0.871567 0.121944 0.254316
1292 4 0.884803 0.123958 0.220832
80 4 0.57618 0.0840875 0.280391
26 1 0.617574 0.0891951 0.26366
30 3 0.609117 0.0967751 0.23284
1321 4 0.627604 0.0811708 0.208864
1320 2 0.657681 0.0886559 0.190432
1063 4 0.567991 0.212455 0.270622
1140 2 0.602962 0.283171 0.151561
1332 2 0.785996 0.236441 0.192619
990 2 0.855733 0.186411 0.160118
623 4 0.893578 0.200157 0.212891
1334 4 0.760782 0.222242 0.171101
992 4 0.822428 0.193033 0.147976
538 4 0.999852 0.227905 0.197869
987 2 0.503257 0.587157 0.233583
949 4 0.881157 0.27068 0.166591
1062 2 0.585031 0.238745 0.252763
291 2 0.666433 0.309509 0.219479
292 4 0.666735 0.280665 0.197838
1141 4 0.569096 0.271208 0.148337
1333 4 0.811211 0.250641 0.214136
908 4 0.800174 0.269103 0.248924
906 2 0.771764 0.288477 0.259782
948 2 0.873429 0.278048 0.201035