ITEM: TIMESTEP
1015000
ITEM: NUMBER OF ATOMS
1520
ITEM: BOX BOUNDS pp pp pp
-6.9326749999999997e+00 6.9326749999999997e+00
-6.9326749999999997e+00 6.9326749999999997e+00
-6.9326749999999997e+00 6.9326749999999997e+00
ITEM: ATOMS id type xs ys zs
394 4 0.156807 0.0315863 0.0244752
1141 4 0.140122 0.0615946 0.0168953
1140 2 0.155282 0.0924436 0.0278
1151 4 0.456926 0.502868 0.139738
682 4 0.48234 0.653068 0.0881742
1203 2 0.333067 0.0545734 0.0558714
1204 4 0.367725 0.0520182 0.0462469
413 4 0.386664 0.0418331 0.0186394
74 4 0.00600647 0.678025 0.254136
681 2 0.489625 0.682714 0.10737
1205 4 0.298408 0.0571282 0.0654963
754 4 0.366422 0.149326 0.0249393
1133 4 0.411862 0.0721882 0.0374072
1131 2 0.427905 0.0759973 0.0694785
389 4 0.44193 0.959516 0.46639
791 4 0.250982 0.175487 0.0919205
142 4 0.270756 0.148246 0.0905946
141 2 0.303579 0.163141 0.0917087
143 4 0.3364 0.178036 0.0928221
512 4 0.00895205 0.29833 0.00753467
510 2 0.00988396 0.322105 0.0346313
511 4 0.0108161 0.345882 0.0617287
1412 4 0.00781131 0.64578 0.268589
1094 4 0.0180383 0.367506 0.455866
822 2 0.109862 0.37171 0.999964
392 4 0.255341 0.405309 0.0570245
390 2 0.24952 0.394021 0.0232741
462 2 0.200025 0.375989 0.0808808
463 4 0.234529 0.386472 0.0806359
464 4 0.165523 0.365505 0.0811256
984 2 0.364821 0.393026 0.0216298
986 4 0.386913 0.382166 0.0479817
650 4 0.496788 0.532953 0.200718
1515 2 0.225629 0.47991 0.0079695
1517 4 0.24391 0.503558 0.0281451
816 2 0.410279 0.457774 0.0134334
818 4 0.404114 0.441821 0.0451811
1454 4 0.270025 0.136865 0.00815039
1003 4 0.164517 0.589378 0.1113
1514 4 0.189637 0.936357 0.449223
1259 4 0.0349702 0.654315 0.0174433
1004 4 0.16447 0.619608 0.0458188
1002 2 0.164493 0.604493 0.0785593
826 4 0.146015 0.651849 0.0371476
1258 4 0.0680209 0.715235 0.0374447
1257 2 0.0514909 0.684771 0.0274387
680 4 0.079742 0.717233 0.0765778
825 2 0.126652 0.681851 0.0421866
827 4 0.107279 0.711872 0.0472247
272 4 0.0968757 0.733387 0.0143386
629 4 0.221302 0.74743 0.0104505
627 2 0.244632 0.720737 0.0170537
606 2 0.327065 0.713296 0.00446888
848 4 0.145739 0.16815 0.481531
161 4 0.0494647 0.740694 0.0630813
159 2 0.0163252 0.749898 0.0522192
116 4 0.115901 0.736641 0.0782537
666 2 0.0916351 0.783808 0.0516961
667 4 0.0877698 0.747936 0.0512375
830 4 0.126687 0.746765 0.0395465
828 2 0.160579 0.75676 0.0322776
668 4 0.0955031 0.819658 0.0521535
829 4 0.194459 0.766748 0.0250136
607 4 0.292867 0.719272 0.0142258
1231 4 0.0835724 0.855523 0.0493409
1230 2 0.0819723 0.888629 0.0635473
1164 2 0.194519 0.885254 0.016714
1166 4 0.205584 0.91716 0.0293639
836 4 0.304778 0.898519 0.096156
834 2 0.337061 0.884657 0.104282
1232 4 0.0803726 0.921736 0.0777535
628 4 0.267962 0.694044 0.0236566
792 2 0.0737835 0.0749364 0.480983
1142 4 0.17044 0.123293 0.0387053
1132 4 0.443948 0.0798069 0.10155
87 2 0.165759 0.13131 0.142762
88 4 0.164999 0.122677 0.107757
790 4 0.191721 0.19999 0.058913
789 2 0.221351 0.187738 0.0754172
1129 4 0.119783 0.327839 0.180966
691 4 0.114809 0.353482 0.15044
690 2 0.133766 0.344327 0.121162
688 4 0.324365 0.35501 0.126552
689 4 0.372515 0.302903 0.113584
687 2 0.34844 0.328957 0.120068
692 4 0.152725 0.335172 0.0918841
1159 4 0.265522 0.486438 0.177222
1158 2 0.28543 0.470193 0.151921
221 4 0.369929 0.459591 0.162378
219 2 0.395115 0.479906 0.146459
220 4 0.420303 0.500219 0.13054
1291 4 0.153074 0.576086 0.142897
1160 4 0.305338 0.453948 0.126619
1149 2 0.487193 0.50734 0.158826
1290 2 0.183225 0.594206 0.150835
1292 4 0.213376 0.612327 0.158772
598 4 0.243758 0.631291 0.156762
597 2 0.253151 0.662212 0.14076
933 2 0.324269 0.684294 0.109322
934 4 0.295886 0.69155 0.130348
599 4 0.262544 0.693133 0.124758
678 2 0.0605406 0.713846 0.106929
47 3 0.0107752 0.728352 0.141198
679 4 0.041349 0.710464 0.137271
1010 4 0.205717 0.735901 0.133627
935 4 0.352654 0.677038 0.0882971
908 4 0.396992 0.755855 0.163194
1027 4 0.465543 0.725486 0.115458
1026 2 0.431259 0.731649 0.124782
114 2 0.143883 0.732178 0.100579
115 4 0.171859 0.727717 0.122892
313 4 0.287145 0.832523 0.171296
1028 4 0.396974 0.737811 0.134107
835 4 0.369343 0.870795 0.112408
1072 4 0.312179 0.0805317 0.172997
89 4 0.166519 0.139942 0.177766
295 4 0.184459 0.15369 0.204923
1071 2 0.303611 0.0987509 0.202915
1073 4 0.295043 0.11697 0.232832
294 2 0.19787 0.18381 0.219531
296 4 0.211282 0.213929 0.234138
344 4 0.303804 0.212568 0.267575
732 2 0.383442 0.243777 0.189327
734 4 0.364338 0.26933 0.17252
733 4 0.402547 0.218224 0.206134
1130 4 0.0687338 0.286047 0.210106
1128 2 0.0942588 0.306942 0.195537
752 4 0.276095 0.306052 0.20591
53 4 0.371064 0.343219 0.24683
63 2 0.497173 0.353542 0.191203
173 4 0.113811 0.428498 0.243582
574 4 0.22912 0.413446 0.275329
573 2 0.218511 0.423569 0.242383
751 4 0.314936 0.366004 0.195977
750 2 0.295515 0.336028 0.200943
64 4 0.486545 0.383002 0.209081
868 4 0.45525 0.364274 0.214278
867 2 0.439977 0.384411 0.24
1102 4 0.0205926 0.483473 0.165729
1336 4 0.127709 0.443168 0.273557
575 4 0.207901 0.433692 0.209438
601 4 0.439672 0.0939636 0.0199368
1101 2 0.0286123 0.515276 0.180718
1103 4 0.0366324 0.54708 0.195706
1051 4 0.0439457 0.543817 0.230714
454 4 0.422712 0.547061 0.185858
453 2 0.403383 0.570582 0.205187
169 4 0.164996 0.111049 0.474379
648 2 0.491163 0.531764 0.236318
455 4 0.384054 0.594101 0.224516
1008 2 0.193834 0.741248 0.167251
1344 2 0.178127 0.812687 0.223531
1346 4 0.171242 0.779815 0.210399
1009 4 0.18195 0.746595 0.200876
1345 4 0.185012 0.845559 0.236662
1468 4 0.214374 0.852097 0.259203
907 4 0.370345 0.742906 0.22895
906 2 0.383668 0.749381 0.196071
1467 2 0.234261 0.881349 0.252191
314 4 0.310526 0.900101 0.180685
312 2 0.298836 0.866312 0.17599
1324 4 0.304827 0.929795 0.165249
24 3 0.201622 0.968898 0.238762
21 1 0.230724 0.953379 0.233095
22 3 0.224553 0.922618 0.222308
23 3 0.24805 0.969796 0.20964
1325 4 0.307197 0.971558 0.224002
1323 2 0.306012 0.950676 0.194626
1367 4 0.272864 0.98403 0.231533
398 4 0.998204 0.922747 0.310383
784 4 0.276251 0.0408273 0.300652
1365 2 0.27958 0.014859 0.248993
1366 4 0.286296 0.0456886 0.266453
783 2 0.29811 0.058355 0.323354
342 2 0.275769 0.208483 0.245264
343 4 0.247734 0.204397 0.222953
694 4 0.238914 0.262522 0.309092
735 2 0.435953 0.158008 0.326363
736 4 0.460026 0.18355 0.334638
693 2 0.220027 0.28365 0.331392
52 4 0.42301 0.305113 0.279251
51 2 0.397037 0.324166 0.26304
929 4 0.432253 0.275789 0.292944
1499 4 0.475359 0.339084 0.274635
171 2 0.106585 0.396831 0.259246
172 4 0.0993595 0.365162 0.274909
869 4 0.424705 0.404549 0.265723
1216 4 0.415789 0.390263 0.343443
1215 2 0.438708 0.379168 0.317908
1217 4 0.461626 0.368073 0.292372
1335 2 0.124074 0.47708 0.285271
1337 4 0.12044 0.510991 0.296984
1330 4 0.467853 0.308701 0.443684
1050 2 0.0708305 0.533912 0.252612
1052 4 0.0977142 0.524008 0.274509
1252 4 0.305932 0.55375 0.344413
1339 4 0.30382 0.518973 0.32465
649 4 0.485538 0.530576 0.271918
806 4 0.472124 0.518667 0.302417
804 2 0.469102 0.5487 0.322148
1474 4 0.177435 0.657868 0.274914
1473 2 0.141627 0.656392 0.270916
1001 4 0.278171 0.664101 0.321493
824 4 0.134157 0.380431 0.0251463
1475 4 0.105818 0.654916 0.266918
932 4 0.199786 0.740305 0.30683
930 2 0.235257 0.738404 0.300618
931 4 0.270728 0.736504 0.294407
776 4 0.103696 0.787579 0.321405
774 2 0.133468 0.768478 0.314392
775 4 0.163241 0.749376 0.307379
1400 4 0.306302 0.729705 0.307385
1398 2 0.320625 0.738296 0.275424
1399 4 0.334948 0.746887 0.243464
1469 4 0.254147 0.910604 0.245179
25 3 0.24818 0.951801 0.260874
1233 2 0.281317 0.913009 0.304652
1235 4 0.272423 0.923991 0.271475
1234 4 0.290209 0.902028 0.33783
144 2 0.432866 0.936433 0.313301
146 4 0.427442 0.967464 0.330855
131 4 0.39208 0.958431 0.33038
145 4 0.438289 0.905403 0.295749
358 4 0.20209 0.790675 0.493143
1092 2 0.00908293 0.341657 0.479362
992 4 0.119276 0.0167934 0.456127
968 4 0.16368 0.0919935 0.358521
130 4 0.372472 0.023716 0.35394
129 2 0.382276 0.991074 0.34216
966 2 0.138806 0.102525 0.382412
495 2 0.229604 0.157678 0.390079
785 4 0.319969 0.0758829 0.346055
329 4 0.326845 0.111657 0.35094
327 2 0.325523 0.147655 0.352598
497 4 0.257139 0.180222 0.395914
328 4 0.324201 0.183654 0.354254
210 2 0.372313 0.230905 0.390632
211 4 0.39147 0.244981 0.363516
737 4 0.41188 0.132464 0.318087
695 4 0.20114 0.304779 0.353692
1244 4 0.222528 0.335429 0.350059
137 4 0.351186 0.328004 0.389711
135 2 0.378569 0.345109 0.405775
1329 2 0.501654 0.320223 0.438665
928 4 0.480253 0.258183 0.343812
1006 4 0.471189 0.961724 0.449889
927 2 0.456253 0.266986 0.318378
812 4 0.113549 0.415285 0.362449
810 2 0.0903031 0.390539 0.350301
811 4 0.0670553 0.365793 0.338152
490 4 0.1654 0.410987 0.343024
1242 2 0.193093 0.355962 0.353569
1243 4 0.163657 0.376497 0.35708
136 4 0.405951 0.362214 0.42184
80 4 0.0909687 0.446634 0.368084
78 2 0.0566846 0.45221 0.377777
79 4 0.022401 0.457786 0.38747
489 2 0.189555 0.429992 0.361886
491 4 0.21371 0.448997 0.380749
1360 4 0.213903 0.485063 0.398192
1502 4 0.295597 0.465328 0.396806
1340 4 0.312052 0.459945 0.365267
119 4 0.468624 0.471855 0.432399
117 2 0.466795 0.466766 0.396746
38 3 0.00740639 0.539674 0.420987
246 2 0.357251 0.453879 0.488134
1397 4 0.16846 0.531016 0.400029
1361 4 0.22419 0.526921 0.340367
1253 4 0.235655 0.560108 0.329507
1359 2 0.219047 0.505992 0.36928
1251 2 0.270793 0.55693 0.336961
1338 2 0.307936 0.489459 0.344958
202 4 0.337476 0.578161 0.396899
805 4 0.466081 0.578733 0.34188
1221 2 0.0145712 0.69967 0.387191
771 2 0.080784 0.751288 0.39714
872 4 0.182625 0.704859 0.445459
999 2 0.305296 0.66354 0.345249
1000 4 0.332421 0.662978 0.369005
772 4 0.0455482 0.743648 0.396447
460 4 0.310348 0.794897 0.4769
963 2 0.0318744 0.94766 0.460386
964 4 0.0261031 0.982521 0.467584
118 4 0.464965 0.461677 0.361093
991 4 0.108379 0.0459591 0.391071
990 2 0.113827 0.0313766 0.423599
545 4 0.226901 0.813043 0.424753
1063 4 0.151352 0.00740875 0.488396
793 4 0.0718493 0.100451 0.455573
170 4 0.115527 0.140481 0.430927
168 2 0.140262 0.125765 0.452653
967 4 0.113932 0.113058 0.406304
496 4 0.202069 0.135135 0.384244
218 4 0.30543 0.139631 0.46332
226 4 0.287273 0.144942 0.49075
216 2 0.337853 0.154557 0.458184
488 4 0.402312 0.148442 0.444263
217 4 0.370277 0.169482 0.453047
486 2 0.436877 0.15872 0.444645
487 4 0.47144 0.168998 0.445027
260 4 0.481896 0.483618 0.288526
212 4 0.353156 0.216828 0.417749
1122 2 0.11514 0.368218 0.483954
1123 4 0.145886 0.375205 0.501455
1124 4 0.0843933 0.36123 0.466454
450 2 0.223796 0.440638 0.446695
451 4 0.216183 0.439387 0.481921
958 4 0.156773 0.4508 0.484949
959 4 0.101867 0.476586 0.445936
957 2 0.12932 0.463692 0.465443
452 4 0.23141 0.441889 0.411468
1500 2 0.292602 0.462503 0.432632
1501 4 0.289605 0.459678 0.468457
248 4 0.321244 0.455085 0.489736
443 4 0.0825753 0.575182 0.465534
442 4 0.0990454 0.511794 0.435328
441 2 0.0908102 0.543488 0.450431
1396 4 0.19256 0.533627 0.467955
1395 2 0.18051 0.532322 0.433992
286 4 0.0825485 0.610713 0.465687
285 2 0.0727446 0.634812 0.490661
1512 2 0.157699 0.925828 0.436206
203 4 0.389888 0.553032 0.439598
201 2 0.363682 0.565596 0.418248
714 2 0.395572 0.62049 0.465181
715 4 0.390028 0.588196 0.45012
1223 4 0.0369763 0.708282 0.414103
871 4 0.130376 0.728907 0.401946
773 4 0.116019 0.758929 0.397833
870 2 0.1565 0.716883 0.423702
1306 4 0.224028 0.691256 0.452144
1305 2 0.220766 0.723163 0.468627
1307 4 0.217504 0.75507 0.48511
549 2 0.391371 0.702948 0.498963
1513 4 0.12576 0.915298 0.423189
716 4 0.401114 0.652783 0.480242
247 4 0.393256 0.452674 0.486532
459 2 0.334651 0.770202 0.466903
461 4 0.358954 0.745508 0.456906
550 4 0.378525 0.734403 0.486881
965 4 0.0376462 0.912799 0.453188
543 2 0.24532 0.830174 0.450593
544 4 0.263739 0.847306 0.476432
1452 2 0.23437 0.135329 0.00297895
1318 4 0.0370642 0.283901 0.019282
1317 2 0.0654574 0.268757 0.00300711
1165 4 0.183453 0.853349 0.0040637
1175 4 0.0213946 0.87414 0.894557
794 4 0.0757182 0.0494212 0.506392
317 4 0.0690801 0.0693748 0.535205
1064 4 0.182345 0.0608597 0.525601
651 2 0.214402 0.0929347 0.567076
653 4 0.181764 0.0806829 0.557851
1218 2 0.323207 0.0602663 0.574258
1219 4 0.336236 0.0468673 0.543419
236 4 0.0209613 0.660814 0.777606
652 4 0.247037 0.105187 0.5763
1385 4 0.0324932 0.196612 0.656643
227 4 0.280394 0.109748 0.553326
225 2 0.283834 0.127345 0.522038
753 2 0.375845 0.148957 0.990133
233 4 0.0179128 0.274028 0.564697
266 4 0.158555 0.202371 0.572989
264 2 0.128366 0.206824 0.592208
846 2 0.161697 0.174676 0.513204
847 4 0.177655 0.181202 0.544876
1288 4 0.296101 0.297826 0.595219
1287 2 0.280707 0.26524 0.593941
1034 4 0.307918 0.341093 0.609076
561 2 0.452271 0.381017 0.573385
563 4 0.478479 0.402023 0.58651
388 4 0.458236 0.961781 0.536608
568 4 0.258397 0.424562 0.526705
1372 4 0.228571 0.444159 0.524756
1371 2 0.1931 0.439147 0.52064
567 2 0.281647 0.421564 0.554106
569 4 0.304899 0.418566 0.581508
1383 2 0.013434 0.226904 0.661067
823 4 0.0855681 0.362989 0.974782
121 4 0.458178 0.575824 0.590701
1414 4 0.188764 0.662443 0.546935
120 2 0.462953 0.594146 0.560011
122 4 0.467729 0.612469 0.529321
1488 2 0.043499 0.718175 0.547352
1490 4 0.0219008 0.689336 0.548834
1465 4 0.473881 0.767515 0.540328
1464 2 0.445169 0.785026 0.527314
1466 4 0.416456 0.802537 0.5143
1489 4 0.0650981 0.747015 0.545869
912 2 0.0304228 0.95802 0.56186
357 2 0.214551 0.807167 0.522693
1260 2 0.366585 0.805661 0.531703
1261 4 0.391645 0.780223 0.536734
664 4 0.367668 0.764548 0.563224
249 2 0.13993 0.901685 0.525157
250 4 0.156456 0.932023 0.535496
359 4 0.227012 0.823658 0.552243
1154 4 0.340133 0.909415 0.554316
1262 4 0.341526 0.8311 0.526672
1152 2 0.349494 0.883241 0.531344
1153 4 0.358854 0.857067 0.508371
922 4 0.133624 0.938835 0.564117
671 4 0.417376 0.907879 0.977309
778 4 0.388331 0.954332 0.545507
777 2 0.398385 0.941818 0.577799
112 4 0.501787 0.930141 0.525699
315 2 0.0797414 0.0478148 0.562073
316 4 0.0904024 0.0262549 0.588941
1220 4 0.310178 0.0736648 0.605098
593 4 0.278385 0.0910147 0.597469
1031 4 0.451135 0.109008 0.646514
1196 4 0.208705 0.135515 0.654019
591 2 0.292875 0.104561 0.627585
592 4 0.307365 0.118107 0.657701
656 4 0.478522 0.149195 0.592334
654 2 0.482983 0.129865 0.622449
655 4 0.487445 0.110536 0.652563
815 4 0.0686482 0.186445 0.611874
265 4 0.0981799 0.211278 0.611427
813 2 0.0720953 0.1799 0.647168
179 4 0.204107 0.16864 0.647563
177 2 0.221867 0.183894 0.620135
178 4 0.239627 0.19915 0.592707
1070 4 0.281162 0.228584 0.627245
1068 2 0.296212 0.227592 0.660001
902 4 0.427405 0.209954 0.667446
900 2 0.403792 0.201741 0.641457
901 4 0.38018 0.19353 0.615469
582 2 0.476328 0.210123 0.646469
1298 4 0.127086 0.268768 0.967071
1289 4 0.265314 0.232653 0.592663
1069 4 0.311262 0.226599 0.692757
1033 4 0.271481 0.359305 0.668595
1032 2 0.2897 0.350199 0.638835
619 4 0.339224 0.365338 0.61096
610 4 0.0427993 0.367604 0.685196
1083 2 0.0970733 0.367306 0.645108
1084 4 0.129281 0.35546 0.634029
618 2 0.369728 0.374959 0.594304
620 4 0.400231 0.38458 0.577648
562 4 0.426061 0.360011 0.560261
148 4 0.328034 0.432269 0.615221
147 2 0.297067 0.440641 0.631692
149 4 0.266098 0.449014 0.648164
837 2 0.182089 0.523869 0.645433
839 4 0.204817 0.514318 0.619114
838 4 0.159363 0.53342 0.67175
670 4 0.442449 0.974483 0.989011
1415 4 0.170107 0.692691 0.609692
1413 2 0.179435 0.677565 0.578314
1334 4 0.215043 0.613464 0.633899
663 2 0.369194 0.74786 0.595155
665 4 0.370721 0.731173 0.627087
1394 4 0.0879284 0.777999 0.59189
1392 2 0.0656101 0.772822 0.619738
1393 4 0.0432914 0.767645 0.647586
251 4 0.123403 0.871346 0.514817
669 2 0.429912 0.941181 0.98316
1311 2 0.476169 0.852318 0.643065
90 2 0.0948553 0.907235 0.607535
92 4 0.10891 0.877348 0.622015
721 4 0.329328 0.902278 0.645033
1038 2 0.389528 0.862024 0.634313
1039 4 0.359396 0.878273 0.645648
1312 4 0.445919 0.867819 0.631017
1040 4 0.419659 0.845775 0.622979
91 4 0.0808013 0.937122 0.593055
913 4 0.0419353 0.955983 0.595973
921 2 0.121903 0.972925 0.565056
923 4 0.110183 0.00701539 0.565997
1391 4 0.411607 0.956941 0.640467
779 4 0.408438 0.929305 0.61009
526 4 0.321703 0.996176 0.745005
267 2 0.481162 0.037054 0.731839
1029 2 0.4392 0.084461 0.670081
1030 4 0.427264 0.0599141 0.693648
1278 2 0.11321 0.11889 0.675707
1279 4 0.0909534 0.145765 0.666605
1280 4 0.135466 0.0920169 0.68481
814 4 0.0755426 0.173355 0.682462
1194 2 0.190509 0.112785 0.675295
1195 4 0.172313 0.090054 0.69657
799 4 0.35418 0.320202 0.736264
584 4 0.442703 0.199499 0.638926
798 2 0.374844 0.300639 0.758415
800 4 0.395508 0.281075 0.780567
711 2 0.454935 0.250937 0.741039
712 4 0.452036 0.215082 0.738504
609 2 0.0127061 0.382108 0.69878
1085 4 0.0648653 0.37915 0.656189
797 4 0.0690882 0.343206 0.727167
1352 4 0.162516 0.37185 0.644073
1356 2 0.308658 0.420488 0.767072
1358 4 0.281921 0.416733 0.743166
1357 4 0.335394 0.424243 0.790977
747 2 0.471525 0.383215 0.669205
748 4 0.44462 0.380202 0.693027
274 4 0.184087 0.455643 0.699501
1350 2 0.170268 0.396486 0.66924
1351 4 0.178019 0.421122 0.694408
1348 4 0.367426 0.532197 0.673865
1347 2 0.391678 0.522719 0.648915
273 2 0.191724 0.482299 0.722555
275 4 0.199361 0.508957 0.74561
1349 4 0.415929 0.513242 0.623965
969 2 0.0362294 0.644139 0.724388
970 4 0.0147731 0.665529 0.743945
971 4 0.0576854 0.622747 0.704831
1135 4 0.0809422 0.597356 0.693067
1134 2 0.116799 0.59801 0.689293
1136 4 0.152657 0.598664 0.685518
1333 4 0.1862 0.593454 0.696902
1332 2 0.200622 0.603459 0.665401
45 3 0.431931 0.563586 0.684845
42 3 0.39709 0.591894 0.714544
44 3 0.427061 0.617108 0.677069
41 1 0.410868 0.588787 0.684525
43 3 0.386706 0.583188 0.662058
1373 4 0.157627 0.434133 0.516523
1018 4 0.303192 0.739879 0.756494
374 4 0.359284 0.705345 0.662681
372 2 0.389898 0.713608 0.679854
373 4 0.420513 0.72187 0.697028
1079 4 0.449693 0.748657 0.693188
1420 4 0.181309 0.814001 0.705992
1019 4 0.351936 0.788138 0.778782
1017 2 0.327564 0.764008 0.767638
1077 2 0.453251 0.752281 0.657486
1078 4 0.456808 0.755903 0.621784
1250 4 0.203498 0.851512 0.770567
1421 4 0.237724 0.854153 0.68582
1419 2 0.209517 0.834077 0.695906
1322 4 0.220759 0.888506 0.682834
1320 2 0.251622 0.900926 0.69675
722 4 0.359944 0.908146 0.710072
527 4 0.300822 0.942938 0.701057
525 2 0.311262 0.969557 0.723031
1321 4 0.282484 0.913345 0.710666
720 2 0.344636 0.905213 0.677553
1390 4 0.461612 0.999618 0.67013
1389 2 0.43661 0.97828 0.655299
686 4 0.341628 0.0822367 0.815787
684 2 0.373763 0.0689834 0.825381
269 4 0.469319 0.071058 0.72988
761 4 0.114615 0.074166 0.8349
760 4 0.0638121 0.116862 0.806656
759 2 0.0892133 0.0955145 0.820777
139 4 0.138487 0.206639 0.799296
140 4 0.0708789 0.219827 0.777921
138 2 0.104683 0.213233 0.788609
890 4 0.249259 0.206613 0.772156
888 2 0.273998 0.204464 0.798305
1157 4 0.0157244 0.351584 0.793621
1508 4 0.121081 0.309459 0.81158
796 4 0.115945 0.325918 0.779197
1506 2 0.116307 0.320682 0.845516
889 4 0.298737 0.202316 0.824454
99 2 0.438124 0.35297 0.77821
713 4 0.457834 0.286792 0.743575
1156 4 0.0449359 0.336037 0.857703
1155 2 0.0303297 0.34381 0.825662
795 2 0.0925165 0.334562 0.753182
100 4 0.472142 0.36194 0.770291
941 4 0.237832 0.452752 0.821899
944 4 0.2094 0.450375 0.794961
942 2 0.176068 0.456512 0.80728
939 2 0.254417 0.4769 0.80087
940 4 0.271002 0.501048 0.779841
299 4 0.28636 0.484738 0.751444
297 2 0.313978 0.488518 0.728567
184 4 0.462301 0.413391 0.853253
1178 4 0.467187 0.44873 0.838785
571 4 0.093073 0.565568 0.876001
570 2 0.0680881 0.543545 0.862174
1493 4 0.21935 0.532332 0.764804
1491 2 0.241571 0.560101 0.770771
1492 4 0.26379 0.58787 0.776737
612 2 0.450461 0.628761 0.834084
298 4 0.341596 0.4923 0.705689
614 4 0.479344 0.648429 0.842991
613 4 0.421577 0.609092 0.825176
1057 4 0.399702 0.572065 0.817936
1056 2 0.376204 0.596386 0.805416
1058 4 0.352706 0.620708 0.792896
551 4 0.404217 0.671493 0.511044
412 4 0.423046 0.00348011 0.969578
1087 4 0.0398746 0.743297 0.81424
616 4 0.0213493 0.710316 0.821411
1086 2 0.055677 0.754994 0.784011
1088 4 0.0714813 0.766691 0.753781
276 2 0.161584 0.775984 0.884677
278 4 0.127914 0.770358 0.873054
1248 2 0.173521 0.868029 0.781927
1249 4 0.143546 0.884545 0.793287
364 4 0.120353 0.865625 0.809559
1239 2 0.243304 0.916266 0.816712
1241 4 0.268921 0.94119 0.821503
1240 4 0.217686 0.891342 0.81192
623 4 0.350213 0.823353 0.795397
621 2 0.366094 0.848589 0.775114
622 4 0.381974 0.873824 0.754831
424 4 0.403684 0.861165 0.845753
1363 4 0.430208 0.889397 0.841746
1246 4 0.112839 0.0392827 0.819585
1310 4 0.117897 0.0765846 0.944958
1381 4 0.189818 0.0372203 0.882902
1247 4 0.170966 0.0175723 0.856348
1245 2 0.141903 0.0284271 0.837966
1380 2 0.216733 0.0448913 0.905644
1382 4 0.243647 0.0525618 0.928385
685 4 0.405899 0.05573 0.834976
989 4 0.462083 0.99816 0.877827
1478 4 0.473772 0.0725966 0.807328
1477 4 0.416021 0.0300766 0.814979
1476 2 0.444897 0.0513371 0.811153
1368 2 0.0196184 0.200923 0.907629
1355 4 0.430584 0.214989 0.915946
1353 2 0.396651 0.212409 0.904021
289 4 0.018674 0.328977 0.875529
101 4 0.404106 0.343999 0.786131
15 3 0.0622005 0.39187 0.847904
11 1 0.0779127 0.381817 0.874939
14 3 0.106882 0.367297 0.866577
13 3 0.0836048 0.407849 0.895183
1507 4 0.111533 0.331906 0.879452
918 2 0.335202 0.39266 0.872662
920 4 0.323247 0.402501 0.840094
185 4 0.495053 0.364479 0.894925
1117 4 0.0433336 0.489474 0.86639
1118 4 0.0749399 0.424685 0.864143
1116 2 0.059137 0.45708 0.865267
318 2 0.130815 0.486232 0.867753
320 4 0.156687 0.483956 0.842736
943 4 0.142737 0.462648 0.8196
183 2 0.478677 0.388935 0.874089
572 4 0.0431043 0.521521 0.848347
319 4 0.104944 0.488509 0.892772
880 4 0.129387 0.575286 0.867027
881 4 0.101291 0.623602 0.91261
879 2 0.11534 0.599444 0.889818
1300 4 0.17693 0.62319 0.898006
1299 2 0.209179 0.639281 0.896777
1301 4 0.241428 0.655372 0.895548
230 4 0.00880047 0.736762 0.91485
277 4 0.195254 0.78161 0.896301
1024 4 0.21393 0.757918 0.877416
1025 4 0.227065 0.689604 0.896455
1023 2 0.220498 0.723761 0.886935
208 4 0.450562 0.751732 0.880448
430 4 0.149986 0.545545 0.993662
207 2 0.478273 0.762266 0.859916
363 2 0.10674 0.863076 0.842855
257 4 0.0740256 0.84478 0.904988
365 4 0.0931274 0.860526 0.876151
423 2 0.387967 0.834837 0.864733
425 4 0.372249 0.808509 0.883712
1362 2 0.45607 0.878544 0.864414
1364 4 0.481931 0.867692 0.887082
580 4 0.492396 0.860778 0.919727
988 4 0.400923 0.961686 0.866387
445 4 0.388675 0.938087 0.89633
1082 4 0.482515 0.0285951 0.887185
987 2 0.431503 0.979922 0.872107
854 4 0.0573286 0.0263839 0.947625
852 2 0.0724569 0.0590279 0.950054
853 4 0.0875853 0.0916726 0.952482
1308 2 0.137392 0.0584497 0.920637
395 4 0.180075 0.995298 0.966653
1309 4 0.156886 0.0403154 0.896317
393 2 0.168442 0.0134423 0.995563
322 4 0.306867 0.0584175 0.973876
108 2 0.111014 0.166678 0.933778
110 4 0.0751493 0.163374 0.931995
1099 4 0.488087 0.714972 0.94941
1453 4 0.198715 0.133794 0.997808
615 2 0.00594226 0.715399 0.853616
755 4 0.385268 0.148588 0.955327
242 4 0.0160454 0.531081 0.782534
600 2 0.458297 0.0980391 0.989327
602 4 0.476921 0.102115 0.958718
1369 4 0.0466778 0.185788 0.926045
749 4 0.498428 0.386228 0.645382
1297 4 0.137896 0.197555 0.963376
109 4 0.14688 0.169982 0.935563
1296 2 0.132491 0.233162 0.965224
1354 4 0.362716 0.209828 0.892096
1213 4 0.484693 0.255857 0.925315
353 4 0.0730194 0.348692 0.924105
1176 2 0.487843 0.453264 0.809575
1416 2 0.00638981 0.607819 0.593351
352 4 0.0986412 0.284346 0.94422
351 2 0.0858299 0.316519 0.934163
1214 4 0.437256 0.287104 0.969758
1212 2 0.460974 0.271481 0.947537
481 4 0.489636 0.677719 0.948734
12 3 0.0590613 0.359702 0.890947
391 4 0.243699 0.382732 0.989524
559 4 0.253325 0.36829 0.957984
919 4 0.347157 0.38282 0.90523
558 2 0.28305 0.3789 0.940541
560 4 0.312777 0.38951 0.923097
985 4 0.342729 0.403886 0.995278
1238 4 0.375135 0.410626 0.904219
1236 2 0.383522 0.432018 0.932013
1237 4 0.391909 0.45341 0.959806
817 4 0.416443 0.473727 0.981686
1423 4 0.485915 0.442807 0.937931
429 2 0.115058 0.553609 0.989728
431 4 0.0801312 0.561674 0.985794
198 2 0.386697 0.522952 0.966702
1198 4 0.346586 0.564752 0.947206
200 4 0.359753 0.531157 0.944183
199 4 0.413642 0.514746 0.98922
566 4 0.0601433 0.580317 0.960384
564 2 0.0403951 0.602425 0.980918
1199 4 0.346946 0.59147 0.880216
1197 2 0.346766 0.578111 0.913711
482 4 0.483671 0.609936 0.924825
287 4 0.0629419 0.658909 0.515634
270 2 0.105197 0.745093 0.981247
271 4 0.113517 0.756795 0.948168
632 4 0.486491 0.097205 0.829242
480 2 0.486654 0.643827 0.93678
605 4 0.231841 0.761339 0.959266
603 2 0.244349 0.795033 0.962207
565 4 0.0206477 0.624533 0.00145268
256 4 0.107504 0.895817 0.943407
323 4 0.291159 0.128138 0.98357
255 2 0.090765 0.870298 0.924197
604 4 0.256858 0.828727 0.965148
1209 2 0.278184 0.872415 0.969518
1211 4 0.24385 0.862777 0.974877
444 2 0.360993 0.925254 0.915551
446 4 0.33331 0.912421 0.934772
1210 4 0.312517 0.882053 0.96416
1426 4 0.491454 0.278345 0.783327
321 2 0.299013 0.0932776 0.978723
231 2 0.0282103 0.242754 0.549991
232 4 0.0385079 0.21148 0.535286
1418 4 0.017943 0.64032 0.582832
914 4 0.0189093 0.960057 0.527745
268 4 0.493006 0.00304995 0.733797
411 2 0.404855 0.0226567 0.994109
387 2 0.450082 0.960648 0.501498
1516 4 0.20735 0.456262 0.987794
608 4 0.361263 0.70732 0.994712
1319 4 0.0938514 0.253613 0.986733
1062 2 0.166849 0.0341343 0.506998
1093 4 0.000127226 0.315807 0.502856
204 2 0.733003 0.0807306 0.00433463
519 2 0.803839 0.0142565 0.0251328
205 4 0.734761 0.0494237 0.0221442
520 4 0.803231 0.041707 0.00175434
465 2 0.890318 0.0391858 0.0507302
467 4 0.889848 0.00718054 0.0341211
448 4 0.751929 0.893765 0.469475
306 2 0.817645 0.160216 0.0639428
478 4 0.985524 0.067267 0.337842
1503 2 0.906201 0.157283 0.0189206
1505 4 0.9071 0.124864 0.00315388
307 4 0.784358 0.148164 0.0708125
718 4 0.899994 0.210737 0.999121
456 2 0.826545 0.32428 0.0780336
458 4 0.839684 0.29175 0.0863748
384 2 0.689477 0.399438 0.0857681
386 4 0.691373 0.36389 0.0915211
457 4 0.813405 0.356809 0.0696925
1303 4 0.801389 0.406674 0.00874604
706 4 0.764898 0.421494 0.0171732
762 2 0.989462 0.573648 0.361433
477 2 0.984313 0.0788103 0.371984
18 3 0.921967 0.38669 0.0161307
1424 4 0.515642 0.459551 0.00147478
1150 4 0.517459 0.511814 0.177914
1277 4 0.668242 0.571998 0.0753358
1275 2 0.635401 0.557921 0.0802099
1276 4 0.602561 0.543845 0.0850847
1163 4 0.923611 0.96778 0.481157
513 2 0.93713 0.667714 0.0134876
515 4 0.951628 0.645685 0.0380832
553 4 0.668686 0.771121 0.0708209
27 3 0.690179 0.709943 0.0445577
26 1 0.668455 0.705241 0.0691874
28 3 0.65302 0.734216 0.0756785
1411 4 0.979612 0.672424 0.329389
281 4 0.776069 0.724992 0.00678217
1437 2 0.56265 0.821128 0.0450952
1439 4 0.579989 0.852701 0.0467977
554 4 0.670227 0.791703 0.00171537
552 2 0.669457 0.781412 0.0362679
866 4 0.71947 0.832592 0.0310743
502 4 0.751353 0.832 0.044283
1316 4 0.914642 0.771849 0.0172595
1314 2 0.923444 0.781127 0.0509761
1315 4 0.932247 0.790406 0.0846932
160 4 0.983192 0.759098 0.0413588
167 4 0.563648 0.882253 0.0415225
165 2 0.569396 0.916634 0.0322835
166 4 0.575144 0.951014 0.0230446
865 4 0.677642 0.88611 0.00682927
1440 2 0.661855 0.931682 0.0152093
864 2 0.698556 0.85935 0.0189516
1442 4 0.664761 0.902205 0.0357788
501 2 0.780156 0.852121 0.0523988
503 4 0.80896 0.872243 0.060515
409 4 0.851974 0.873976 0.0536247
408 2 0.882804 0.888979 0.0424511
410 4 0.913635 0.903983 0.0312788
292 4 0.566462 0.996632 0.0680395
479 4 0.983102 0.0903546 0.406126
291 2 0.600482 0.984694 0.0687785
521 4 0.804447 0.986806 0.0485106
843 2 0.96145 0.949414 0.0103943
844 4 0.967459 0.93871 0.0443023
370 4 0.631625 0.0950658 0.144391
952 4 0.871729 0.0751622 0.109433
466 4 0.890788 0.0711906 0.0673403
325 4 0.865384 0.0903921 0.154508
369 2 0.666518 0.103653 0.147433
371 4 0.701409 0.11224 0.150474
308 4 0.850931 0.172268 0.0570732
953 4 0.853189 0.136774 0.0768439
951 2 0.862459 0.105968 0.0931384
82 4 0.925468 0.124995 0.139918
133 4 0.663451 0.206803 0.10677
132 2 0.653808 0.179392 0.128126
134 4 0.644166 0.151981 0.149482
81 2 0.913586 0.158391 0.146547
83 4 0.901704 0.191787 0.153176
105 2 0.956377 0.379057 0.0849898
1379 4 0.943316 0.334442 0.160622
106 4 0.931906 0.405033 0.0901723
469 4 0.567557 0.40261 0.218465
996 2 0.858433 0.529601 0.486293
385 4 0.687581 0.434987 0.0800157
746 4 0.699174 0.445361 0.110758
311 4 0.572019 0.45982 0.158488
744 2 0.707636 0.440756 0.145509
745 4 0.716098 0.436151 0.18026
742 4 0.750813 0.426122 0.184485
187 4 0.726464 0.476185 0.0995989
911 4 0.816756 0.401553 0.101369
909 2 0.824328 0.432971 0.117368
910 4 0.831898 0.46439 0.133366
677 4 0.85225 0.492931 0.141851
197 4 0.935507 0.46598 0.127118
195 2 0.917629 0.496361 0.134724
196 4 0.899751 0.52674 0.142329
435 2 0.69069 0.51908 0.137135
437 4 0.696666 0.498247 0.108313
436 4 0.684714 0.539913 0.165957
186 2 0.759913 0.48963 0.100496
188 4 0.793363 0.503075 0.101393
1048 4 0.654272 0.631206 0.167669
1047 2 0.668828 0.658987 0.149873
1049 4 0.683387 0.686767 0.132075
683 4 0.496909 0.712359 0.126567
705 2 0.754729 0.389536 0.00391819
532 4 0.51929 0.711302 0.156155
29 3 0.646078 0.682264 0.0596351
30 3 0.68448 0.694846 0.0959103
350 4 0.71054 0.669756 0.107015
349 4 0.771251 0.665644 0.145732
348 2 0.740896 0.6677 0.126373
49 3 0.993044 0.682448 0.16393
48 3 0.964524 0.706221 0.123608
46 1 0.983673 0.711638 0.150513
1438 4 0.54531 0.789555 0.0433925
1172 4 0.652652 0.818199 0.137742
127 4 0.931796 0.79049 0.165975
126 2 0.944637 0.778883 0.134339
128 4 0.957477 0.767276 0.102703
1170 2 0.623014 0.838238 0.142265
1171 4 0.593377 0.858278 0.146788
858 2 0.651226 0.993155 0.130469
860 4 0.628715 0.981905 0.10464
293 4 0.634502 0.972756 0.0695183
859 4 0.673737 0.00440507 0.156297
54 2 0.590766 0.0363299 0.269592
56 4 0.584543 0.0679944 0.253497
324 2 0.881149 0.0665017 0.176442
214 4 0.876694 0.975495 0.193264
326 4 0.896914 0.0426122 0.198376
1432 4 0.977046 0.0743168 0.228787
1431 2 0.952057 0.0519306 0.215565
1433 4 0.927069 0.0295447 0.202342
639 2 0.60168 0.14766 0.185381
641 4 0.579908 0.175201 0.193616
640 4 0.623453 0.120118 0.177146
1446 2 0.70817 0.261647 0.212332