ITEM: TIMESTEP
1566000
ITEM: NUMBER OF ATOMS
1520
ITEM: BOX BOUNDS pp pp pp
-6.9326749999999997e+00 6.9326749999999997e+00
-6.9326749999999997e+00 6.9326749999999997e+00
-6.9326749999999997e+00 6.9326749999999997e+00
ITEM: ATOMS id type xs ys zs
929 4 0.173614 0.039829 0.0721866
435 2 0.198966 0.990138 0.0270414
436 4 0.177597 0.0144165 0.0429896
58 4 0.406675 0.0384247 0.0934804
1306 4 0.0449235 0.164403 0.043314
1006 4 0.0480652 0.128046 0.0432315
1005 2 0.079543 0.116538 0.0299214
1424 4 0.215376 0.189166 0.00834939
1422 2 0.200252 0.156803 0.00341737
206 4 0.329473 0.151905 0.0385513
1372 4 0.284962 0.136847 0.0443683
1371 2 0.274395 0.106834 0.0613342
1373 4 0.263827 0.0768201 0.0783021
205 4 0.358724 0.174261 0.100569
204 2 0.344099 0.163083 0.0695597
716 4 0.438221 0.086996 0.991334
1305 2 0.0312957 0.197726 0.0412351
278 4 0.0182965 0.138044 0.421119
1233 2 0.00833664 0.279461 0.00879922
1179 2 0.472163 0.191413 0.0308881
1151 4 0.457855 0.195266 0.0930232
1181 4 0.474822 0.205526 0.0639653
1007 4 0.11102 0.105031 0.0166114
1212 2 0.999173 0.920289 0.42691
1128 2 0.400552 0.371776 0.0922121
1129 4 0.407293 0.337574 0.101446
338 4 0.253648 0.491662 0.0300859
336 2 0.28356 0.473661 0.0210532
1089 2 0.401679 0.467421 0.0426734
1091 4 0.369078 0.482642 0.0450717
367 4 0.339785 0.487888 0.031233
1090 4 0.434282 0.452198 0.0402756
311 4 0.474382 0.432443 0.06913
638 4 0.433513 0.40135 0.0130205
351 2 0.0015791 0.544141 0.315854
1433 4 0.254776 0.60519 0.0262636
7 3 0.263354 0.550069 0.078442
6 1 0.284409 0.552907 0.0529608
10 3 0.31087 0.569798 0.0626218
9 3 0.269054 0.569042 0.0279846
8 3 0.293444 0.522285 0.0429307
778 4 0.0905523 0.530769 0.115847
1432 4 0.185533 0.586401 0.0336187
1431 2 0.220155 0.595795 0.029941
866 4 0.29437 0.664045 0.0644842
864 2 0.287764 0.628858 0.06017
556 4 0.418604 0.62516 0.0547268
555 2 0.425875 0.622802 0.0194846
466 4 0.452923 0.644538 0.060719
176 4 0.429994 0.311719 0.0121743
906 2 0.144812 0.809969 0.0797301
908 4 0.113697 0.828027 0.0822247
1079 4 0.417301 0.86322 0.0645593
1300 4 0.457962 0.76536 0.0392829
795 2 0.457056 0.756184 0.079106
797 4 0.474801 0.785629 0.0682216
1267 4 0.0272413 0.87966 0.0035748
1014 2 0.111212 0.889496 0.0657783
1015 4 0.100203 0.855378 0.0618911
1077 2 0.40276 0.838296 0.0861869
628 4 0.00588443 0.00140545 0.0655371
629 4 0.0454473 0.976347 0.0106872
627 2 0.0256655 0.988876 0.0381128
437 4 0.220335 0.965859 0.0110927
329 4 0.298451 0.956848 0.0510082
327 2 0.287134 0.92399 0.041381
328 4 0.275817 0.891132 0.0317543
173 4 0.434242 0.0156693 0.0881526
928 4 0.167454 0.0518901 0.143027
927 2 0.170534 0.0458598 0.107607
403 4 0.201833 0.0665514 0.160348
209 4 0.339364 0.0357988 0.184659
57 2 0.380042 0.0144507 0.0894358
878 4 0.420372 0.0549233 0.117383
1263 2 0.0369004 0.12894 0.0917401
651 2 0.0639831 0.0870378 0.154754
653 4 0.0577969 0.11004 0.127679
1264 4 0.0710435 0.132914 0.10264
202 4 0.389746 0.15967 0.108215
201 2 0.384598 0.16045 0.143899
203 4 0.37945 0.161229 0.179582
877 4 0.445852 0.0904939 0.174715
876 2 0.433112 0.0727078 0.146048
1420 4 0.0495206 0.223514 0.1391
1419 2 0.0159175 0.235697 0.134322
1496 4 0.07973 0.219112 0.119981
1494 2 0.0951092 0.226377 0.151778
1495 4 0.110489 0.233644 0.183575
1149 2 0.461252 0.203755 0.127906
1150 4 0.46465 0.212243 0.162789
507 2 0.0305287 0.309724 0.142881
508 4 0.0519321 0.293396 0.166874
417 2 0.424644 0.325079 0.178506
418 4 0.458427 0.317757 0.168234
509 4 0.00912379 0.326053 0.118888
1130 4 0.393811 0.405976 0.0829784
419 4 0.390862 0.332402 0.188776
1299 2 0.454208 0.756603 0.00450202
970 4 0.0122545 0.532022 0.122843
969 2 0.000387626 0.498116 0.119687
779 4 0.0633214 0.561266 0.0564335
862 4 0.00696102 0.56516 0.111323
777 2 0.0769369 0.546018 0.0861401
1028 4 0.155695 0.619639 0.113097
1026 2 0.143441 0.596634 0.138017
861 2 0.0194609 0.597012 0.122706
863 4 0.0319603 0.628866 0.134089
462 2 0.441403 0.657545 0.1434
463 4 0.45254 0.691664 0.146909
796 4 0.439309 0.726738 0.0899892
465 2 0.454087 0.680578 0.0603266
467 4 0.455252 0.716619 0.0599337
955 4 0.103351 0.823267 0.147672
907 4 0.175926 0.791911 0.077236
954 2 0.117504 0.80185 0.172999
93 2 0.0491973 0.839845 0.13904
94 4 0.0678714 0.82058 0.163136
95 4 0.0305229 0.859109 0.114946
1016 4 0.12222 0.923615 0.0696645
1078 4 0.388219 0.813372 0.107815
548 4 0.38485 0.844941 0.129507
546 2 0.375568 0.864305 0.158479
544 4 0.359099 0.974946 0.117393
59 4 0.35341 0.990476 0.0853911
543 2 0.355663 0.971204 0.153095
172 4 0.465058 0.95634 0.0610948
171 2 0.44965 0.986005 0.0746237
652 4 0.0701696 0.0640361 0.181829
372 2 0.106609 0.0653954 0.222553
373 4 0.112885 0.0875927 0.250272
404 4 0.242913 0.0962295 0.211663
402 2 0.222373 0.081391 0.186006
207 2 0.314782 0.0179339 0.204074
208 4 0.290198 6.88952e-05 0.223487
374 4 0.100331 0.0431998 0.194834
356 4 0.237761 0.080925 0.247324
192 2 0.295788 0.198096 0.220516
1331 4 0.248694 0.21458 0.21419
193 4 0.280151 0.215183 0.192877
194 4 0.311425 0.181009 0.248155
456 2 0.426759 0.19997 0.201803
458 4 0.392435 0.188964 0.202907
457 4 0.461082 0.210974 0.200697
459 2 0.0851465 0.290321 0.197943
461 4 0.0855505 0.288438 0.161933
460 4 0.0847434 0.292203 0.233953
1329 2 0.220495 0.231006 0.229533
1330 4 0.192295 0.247431 0.244876
83 4 0.280317 0.368668 0.235174
806 4 0.204526 0.336009 0.222701
82 4 0.210457 0.371168 0.217423
81 2 0.245387 0.369918 0.226299
236 4 0.381409 0.408637 0.200945
235 4 0.365873 0.347683 0.16566
234 2 0.37364 0.37816 0.183302
1021 4 0.41674 0.415249 0.212126
872 4 0.0699159 0.508143 0.24094
1037 4 0.275461 0.501218 0.224196
1020 2 0.427529 0.448474 0.221074
1442 4 0.428301 0.500564 0.25851
1022 4 0.438317 0.4817 0.230023
870 2 0.0382055 0.502267 0.257074
871 4 0.00649412 0.496392 0.273209
55 4 0.0897298 0.497684 0.213049
54 2 0.115135 0.519984 0.20049
56 4 0.14054 0.542283 0.187929
1027 4 0.131186 0.573629 0.162937
979 4 0.266504 0.568087 0.167675
125 4 0.295159 0.509033 0.250388
1036 4 0.241858 0.544982 0.177752
1035 2 0.25866 0.5231 0.200975
996 2 0.376373 0.58107 0.17874
998 4 0.376949 0.574949 0.214272
560 4 0.027672 0.647468 0.165574
558 2 0.0297848 0.627305 0.195398
559 4 0.0318982 0.607142 0.225221
1291 4 0.0605794 0.603737 0.250302
978 2 0.278652 0.599311 0.181012
980 4 0.2908 0.630534 0.194351
247 4 0.319969 0.647619 0.182744
246 2 0.325347 0.682046 0.192028
997 4 0.375797 0.587191 0.143207
464 4 0.430265 0.623427 0.139892
248 4 0.330725 0.716475 0.201313
1445 4 0.000280468 0.758932 0.204555
536 4 0.340395 0.95067 0.408196
956 4 0.131656 0.780432 0.198325
752 4 0.168624 0.939215 0.148698
751 4 0.212524 0.882011 0.150157
750 2 0.190574 0.910614 0.149428
922 4 0.292418 0.889637 0.213599
547 4 0.366286 0.883667 0.18745
923 4 0.337345 0.935094 0.18018
921 2 0.314882 0.912365 0.19689
545 4 0.352227 0.967462 0.188797
1285 4 0.0550406 0.00105446 0.30967
809 4 0.0979506 0.000678424 0.230821
807 2 0.0903197 0.990941 0.264694
1019 4 0.3365 0.0406624 0.265504
354 2 0.259525 0.0791309 0.276021
355 4 0.28129 0.0773369 0.304718
1018 4 0.333879 0.0928706 0.315195
1017 2 0.335189 0.0667664 0.290349
805 4 0.172335 0.271975 0.230763
804 2 0.18843 0.303992 0.226732
1131 2 0.407348 0.280925 0.306857
1133 4 0.419339 0.278749 0.272917
408 2 0.146415 0.526736 0.296316
410 4 0.147772 0.502757 0.269416
1310 4 0.348296 0.413444 0.250625
1309 4 0.339711 0.415781 0.322197
1308 2 0.344004 0.414613 0.286411
409 4 0.145059 0.550716 0.323215
1514 4 0.177907 0.571095 0.324868
123 2 0.319042 0.507673 0.277372
1440 2 0.40393 0.523082 0.244388
124 4 0.342927 0.506312 0.304356
1441 4 0.379558 0.545597 0.230266
1292 4 0.0540417 0.643605 0.310046
1290 2 0.0573101 0.623671 0.280174
230 4 0.432148 0.55081 0.399643
1146 2 0.348471 0.744074 0.298171
1393 4 0.410381 0.727957 0.306496
1148 4 0.383195 0.752439 0.293203
1147 4 0.313747 0.73571 0.303139
1394 4 0.477305 0.732953 0.332912
1392 2 0.443843 0.730455 0.319704
1251 2 0.0835773 0.782774 0.318087
1253 4 0.0874745 0.815272 0.302951
620 4 0.234682 0.752467 0.301201
618 2 0.261245 0.765641 0.280677
619 4 0.287809 0.778815 0.260152
541 4 0.274988 0.906888 0.29313
542 4 0.218055 0.87452 0.26292
540 2 0.246521 0.890704 0.278024
808 4 0.0826894 0.981202 0.298566
626 4 0.053971 0.0251562 0.403371
1284 2 0.0502535 0.0191962 0.340465
1286 4 0.0454659 0.0373383 0.37126
902 4 0.285613 0.0832209 0.337892
901 4 0.278787 0.0166388 0.36476
900 2 0.2822 0.0499293 0.351326
1255 4 0.283045 0.165321 0.360971
1256 4 0.3044 0.111764 0.317643
1254 2 0.293723 0.138543 0.339306
533 4 0.119441 0.149186 0.374954
532 4 0.123967 0.213034 0.40819
531 2 0.121704 0.181109 0.391572
1262 4 0.327362 0.154848 0.441374
312 2 0.378585 0.297674 0.390424
313 4 0.372456 0.281546 0.422089
1132 4 0.395357 0.283101 0.340797
314 4 0.384713 0.313802 0.358758
245 4 0.0299542 0.391273 0.406304
243 2 0.00206558 0.373679 0.391706
344 4 0.134529 0.359998 0.42344
343 4 0.158348 0.393286 0.364058
342 2 0.146439 0.376642 0.393749
380 4 0.19244 0.397494 0.368878
378 2 0.224696 0.406754 0.382079
554 4 0.370227 0.421498 0.339691
552 2 0.385494 0.422168 0.372354
578 4 0.406364 0.420182 0.442602
241 4 0.059228 0.480623 0.389369
379 4 0.256951 0.416015 0.395279
553 4 0.40076 0.422838 0.405017
1061 4 0.472844 0.442202 0.357472
1060 4 0.441366 0.485001 0.308696
1059 2 0.457105 0.463601 0.333084
242 4 0.026922 0.498699 0.327472
240 2 0.043075 0.489661 0.35842
1512 2 0.18965 0.565654 0.358527
1513 4 0.201393 0.560214 0.392187
913 4 0.234221 0.543743 0.401663
912 2 0.258071 0.567932 0.413764
229 4 0.396168 0.586718 0.348482
631 4 0.479088 0.597466 0.465896
353 4 0.0172047 0.563276 0.342123
944 4 0.391481 0.623098 0.368085
942 2 0.392417 0.658129 0.376592
1435 4 0.37677 0.577595 0.37818
228 2 0.414158 0.568764 0.374063
1252 4 0.0796803 0.750276 0.333224
885 2 0.115222 0.725955 0.367575
886 4 0.103035 0.722564 0.333805
887 4 0.127409 0.729347 0.401344
728 4 0.158579 0.680865 0.40601
413 4 0.330172 0.727296 0.371706
411 2 0.296545 0.714554 0.374402
943 4 0.393353 0.69316 0.385098
1158 2 0.422537 0.740794 0.400643
1159 4 0.428025 0.710512 0.381846
1178 4 0.237181 0.726021 0.385417
1176 2 0.205721 0.709162 0.380272
412 4 0.262918 0.701813 0.377097
1160 4 0.417049 0.771076 0.419438
859 4 0.498315 0.848934 0.357855
1068 2 0.050509 0.871828 0.37629
1069 4 0.076846 0.865256 0.35255
1070 4 0.0241718 0.8784 0.400029
1213 4 0.0305775 0.912609 0.410934
472 4 0.375588 0.938184 0.351762
471 2 0.393857 0.908637 0.361438
473 4 0.412126 0.87909 0.371115
860 4 0.451136 0.900682 0.375116
858 2 0.474726 0.874808 0.366486
624 2 0.0597727 0.992761 0.418111
1144 4 0.282681 0.936669 0.380779
1143 2 0.292706 0.971176 0.383805
1145 4 0.302732 0.00568294 0.386831
1471 4 0.367118 0.974314 0.411211
503 4 0.482051 0.930098 0.409354
502 4 0.470598 0.990089 0.370993
501 2 0.476325 0.960094 0.390173
1055 4 0.146991 0.0373188 0.484666
136 4 0.168334 0.0514958 0.462608
1470 2 0.387737 0.0032702 0.417277
1472 4 0.408357 0.0322264 0.423342
277 4 0.0490818 0.123437 0.484685
276 2 0.0336897 0.13074 0.452902
280 4 0.0799333 0.180533 0.507997
135 2 0.16556 0.0868943 0.45631
137 4 0.162788 0.122293 0.450011
279 2 0.10235 0.15311 0.501226
281 4 0.124768 0.125686 0.494456
671 4 0.329169 0.113723 0.479735
670 4 0.389188 0.119734 0.440198
669 2 0.359178 0.116728 0.459967
1097 4 0.184076 0.272475 0.472766
1261 4 0.264495 0.18683 0.456422
1260 2 0.295929 0.170838 0.448898
1095 2 0.200002 0.278355 0.504581
1429 4 0.368547 0.292105 0.45345
1428 2 0.36514 0.267808 0.479877
1117 4 0.0252324 0.384756 0.441582
1116 2 0.0356133 0.361596 0.4672
1118 4 0.0459936 0.338437 0.492818
865 4 0.281159 0.59367 0.0558559
576 2 0.417126 0.392205 0.462648
577 4 0.427888 0.364226 0.482693
184 4 0.33312 0.0829382 0.494909
1307 4 0.0176677 0.231047 0.0391566
914 4 0.281922 0.592124 0.425865
632 4 0.436914 0.552153 0.428888
630 2 0.458001 0.57481 0.44739
1436 4 0.311093 0.590465 0.405059
1434 2 0.343931 0.584031 0.39162
1219 4 0.109156 0.540832 0.485019
726 2 0.167808 0.670284 0.439226
727 4 0.177035 0.659704 0.472442
1265 4 0.00275621 0.124966 0.0808392
162 2 0.435532 0.679825 0.499415
163 4 0.435643 0.678011 0.4634
1177 4 0.174262 0.692302 0.375128
75 2 0.224641 0.892537 0.413258
77 4 0.241645 0.899844 0.382309
535 4 0.338481 0.938573 0.479271
1154 4 0.443655 0.886607 0.49125
1152 2 0.461532 0.894203 0.460866
1153 4 0.479408 0.901799 0.430482
625 4 0.0655739 0.960367 0.432852
76 4 0.207638 0.88523 0.444208
534 2 0.339438 0.944621 0.443733
221 4 0.308666 0.134217 0.0135156
274 4 0.165777 0.137293 0.496602
337 4 0.313473 0.45566 0.0120204
366 2 0.350407 0.511582 0.00620868
450 2 0.0477172 0.999063 0.547714
451 4 0.0228363 0.0149573 0.527009
1053 2 0.148646 0.0395148 0.520621
1054 4 0.150303 0.0417104 0.556577
185 4 0.331781 0.093357 0.566262
275 4 0.181627 0.123475 0.565592
273 2 0.173702 0.130385 0.531097
1205 4 0.0142606 0.968728 0.930152
183 2 0.332451 0.0881474 0.530585
936 2 0.00369155 0.131689 0.614804
164 4 0.435422 0.681638 0.535431
816 2 0.22301 0.287207 0.589063
818 4 0.202944 0.266893 0.567035
1096 4 0.215928 0.284236 0.536397
766 4 0.358616 0.343254 0.541183
1430 4 0.361734 0.24351 0.506305
738 2 0.00533749 0.311356 0.542257
739 4 0.021332 0.334412 0.519609
47 3 0.301052 0.392126 0.590136
765 2 0.391687 0.348804 0.527917
50 3 0.354777 0.389669 0.592354
49 3 0.32699 0.350668 0.56675
1250 4 0.456022 0.845354 0.930513
290 4 0.157129 0.507052 0.582999
1311 2 0.286009 0.417807 0.550772
1312 4 0.269635 0.408303 0.581465
1313 4 0.302382 0.427311 0.52008
350 4 0.334961 0.474181 0.647257
642 2 0.477639 0.481144 0.553544
644 4 0.442471 0.488717 0.551031
288 2 0.180781 0.53358 0.576898
289 4 0.204435 0.56011 0.570796
829 4 0.32403 0.578352 0.529807
114 2 0.404124 0.524974 0.566886
828 2 0.345238 0.578083 0.558971
115 4 0.406502 0.491478 0.553744
1247 4 0.397858 0.693677 0.527825
668 4 0.431971 0.633864 0.560672
990 2 0.47703 0.623611 0.518781
991 4 0.45042 0.644167 0.531812
1245 2 0.389242 0.713185 0.556905
1246 4 0.380627 0.732692 0.585985
491 4 0.243527 0.768177 0.602077
489 2 0.266722 0.773739 0.575032
490 4 0.289917 0.779301 0.547987
724 4 0.322276 0.779967 0.561581
723 2 0.351944 0.788837 0.580061
958 4 0.309679 0.871153 0.563799
842 4 0.437669 0.876918 0.597022
181 4 0.0649554 0.92924 0.558265
180 2 0.0326203 0.920571 0.544859
452 4 0.0725992 0.983169 0.568419
434 4 0.280966 0.0321311 0.609486
957 2 0.308832 0.89316 0.592353
516 2 0.223112 0.0648981 0.601706
518 4 0.211253 0.0984834 0.596066
517 4 0.234971 0.0313132 0.607346
433 4 0.274967 0.999598 0.673574
1366 4 0.362364 0.110645 0.556421
1076 4 0.482199 0.0281063 0.692059
1074 2 0.491325 0.0438897 0.660946
1327 4 0.0520297 0.187156 0.588662
1326 2 0.0846063 0.174083 0.596923
938 4 0.0161676 0.0994616 0.625106
360 2 0.314301 0.984877 0.965963
1114 4 0.1462 0.161226 0.626434
1113 2 0.155442 0.143012 0.656153
1365 2 0.395782 0.117054 0.568361
1367 4 0.429201 0.123462 0.5803
729 2 0.0351823 0.218519 0.641601
730 4 0.0419336 0.187873 0.623834
1328 4 0.117183 0.16101 0.605184
1340 4 0.0161592 0.337879 0.694513
1338 2 0.030711 0.307633 0.681325
1339 4 0.0452629 0.277389 0.668138
817 4 0.243074 0.30752 0.611089
66 2 0.155702 0.367326 0.64935
67 4 0.162333 0.350718 0.618035
763 4 0.349143 0.341172 0.646175
46 1 0.327188 0.371847 0.592659
48 3 0.324923 0.3548 0.621368
349 4 0.354791 0.432678 0.591706
454 4 0.402671 0.850127 0.978565
1269 2 0.0965416 0.494536 0.615161
1270 4 0.130895 0.495062 0.604206
1399 4 0.129595 0.472543 0.667996
1208 4 0.237287 0.481229 0.656745
1206 2 0.243426 0.459192 0.628869
1207 4 0.249564 0.437153 0.600993
348 2 0.344876 0.453429 0.619481
826 4 0.328224 0.50811 0.632271
1271 4 0.0621887 0.494009 0.626117
116 4 0.401744 0.558481 0.580035
830 4 0.366455 0.577813 0.588145
825 2 0.355413 0.530243 0.623825
827 4 0.382616 0.55239 0.615373
1258 4 0.401004 0.573386 0.644927
667 4 0.400584 0.588607 0.607272
680 4 0.423145 0.555746 0.615038
679 4 0.481274 0.523833 0.643429
678 2 0.452215 0.539786 0.629237
905 4 0.487598 0.518222 0.676389
880 4 0.0885551 0.606552 0.588461
53 4 0.10209 0.657861 0.680212
881 4 0.094889 0.635701 0.654126
879 2 0.0917224 0.621126 0.621294
271 4 0.306538 0.619949 0.652704
272 4 0.365928 0.587053 0.628323
270 2 0.336227 0.603503 0.640517
161 4 0.395222 0.613158 0.639234
666 2 0.416283 0.611243 0.583966
159 2 0.404459 0.640145 0.66131
52 4 0.0959251 0.729194 0.688881
51 2 0.0990076 0.693527 0.684546
1315 4 0.228054 0.728175 0.658698
231 2 0.060199 0.752218 0.632507
986 4 0.0252064 0.778514 0.579841
233 4 0.0356211 0.767802 0.611213
232 4 0.0847772 0.736634 0.653802
1314 2 0.203813 0.754874 0.658699
1316 4 0.179572 0.781572 0.658699
725 4 0.381612 0.797707 0.598541
1413 2 0.399538 0.828334 0.625296
1415 4 0.432919 0.833515 0.612677
833 4 0.129235 0.896285 0.665074
832 4 0.11126 0.883527 0.596403
831 2 0.120248 0.889905 0.630738
1515 2 0.402792 0.907626 0.642827
1517 4 0.408441 0.898852 0.608308
1414 4 0.366156 0.823155 0.637913
1203 2 0.0189275 0.985551 0.961705
840 2 0.473413 0.872635 0.599135
1391 4 0.154978 0.974251 0.675485
432 2 0.277966 0.0158645 0.641529
959 4 0.307985 0.915168 0.620907
1345 4 0.269447 0.950177 0.731595
706 4 0.154195 0.0145542 0.736645
1344 2 0.28676 0.981164 0.725235
1346 4 0.304073 0.0121511 0.718875
27 3 0.440552 0.0663456 0.744488
478 4 0.0718749 0.157558 0.724729
1115 4 0.164684 0.124798 0.685872
1122 2 0.122746 0.162435 0.741345
1124 4 0.0912138 0.156054 0.757638
1282 4 0.20137 0.126006 0.685377
1281 2 0.205907 0.127664 0.721113
1283 4 0.210443 0.129322 0.75685
29 3 0.387652 0.0696168 0.755854
28 3 0.415226 0.113986 0.739253
362 4 0.322335 0.0188836 0.957051
301 4 0.0243193 0.998177 0.910379
479 4 0.00479184 0.183787 0.721062
477 2 0.0383343 0.170672 0.722898
1123 4 0.154278 0.168815 0.725054
731 4 0.0284316 0.249164 0.659367
764 4 0.284768 0.347332 0.678107
940 4 0.0478662 0.395627 0.663649
449 4 0.0712116 0.410774 0.685487
939 2 0.0151083 0.394257 0.678666
68 4 0.149071 0.383935 0.680665
447 2 0.105352 0.410173 0.697083
448 4 0.139493 0.409571 0.708679
762 2 0.316955 0.344252 0.662142
1398 2 0.164739 0.471871 0.659944
1400 4 0.199884 0.471198 0.651893
925 4 0.403982 0.445559 0.725659
1348 4 0.421375 0.458242 0.756646
924 2 0.397396 0.480242 0.718305
284 4 0.277668 0.596122 0.744593
926 4 0.39081 0.514927 0.710952
1257 2 0.393677 0.563663 0.678885
1259 4 0.386346 0.553946 0.712831
1003 4 0.466726 0.614157 0.8014
1196 4 0.203939 0.674188 0.767449
282 2 0.296038 0.60849 0.716133
283 4 0.314409 0.620858 0.687673
160 4 0.413691 0.667126 0.683383
1194 2 0.239011 0.677099 0.759579
1195 4 0.274082 0.680011 0.751707
238 4 0.425816 0.699269 0.702527
237 2 0.45548 0.717479 0.711952
239 4 0.485144 0.735689 0.721378
1275 2 0.0088906 0.852982 0.696757
1276 4 0.988844 0.823103 0.694366
1277 4 0.0289368 0.882863 0.699149
1051 4 0.12691 0.878197 0.695168
1050 2 0.146962 0.858909 0.718108
1052 4 0.167014 0.839622 0.741048
1516 4 0.397142 0.9164 0.677345
497 4 0.103855 0.0176318 0.761616
495 2 0.0992635 0.986683 0.743685
496 4 0.0946718 0.955735 0.725753
1390 4 0.206833 0.957677 0.722793
1389 2 0.180905 0.965964 0.699139
674 4 0.330956 0.980569 0.717222
672 2 0.35643 0.963105 0.698607
673 4 0.381903 0.945642 0.679992
1248 2 0.466226 0.851671 0.964518
1337 4 0.484478 0.973156 0.725667
585 2 0.43234 0.963755 0.743173
587 4 0.465814 0.95038 0.742178
104 4 0.00237687 0.992958 0.764593
660 2 0.124051 0.0702988 0.824394
662 4 0.160106 0.0697451 0.824091
707 4 0.171665 0.0446919 0.799797
705 2 0.16293 0.0296225 0.768221
931 4 0.360835 0.982613 0.841911
475 4 0.0710364 0.0872405 0.795781
474 2 0.0624525 0.118193 0.77939
476 4 0.053868 0.149145 0.763
661 4 0.087995 0.0708521 0.824696
605 4 0.226249 0.154575 0.773
603 2 0.210357 0.169061 0.801949
30 3 0.424349 0.092861 0.788439
26 1 0.416904 0.0858119 0.757234
798 2 0.425912 0.1165 0.827645
800 4 0.418783 0.0822073 0.819062
604 4 0.194466 0.183547 0.830896
810 2 0.3363 0.164625 0.832572
812 4 0.321352 0.192308 0.81495
346 4 0.440463 0.364338 0.805163
1387 4 0.0676091 0.353174 0.803451
1034 4 0.0841522 0.376732 0.780082
1386 2 0.037252 0.355445 0.822784
1032 2 0.100086 0.345783 0.770663
1033 4 0.116019 0.314834 0.761245
345 2 0.47098 0.345602 0.809415
85 4 0.228469 0.454495 0.789758
84 2 0.237114 0.488396 0.7985
1347 2 0.440058 0.45949 0.787466
1349 4 0.458742 0.460737 0.818284
658 4 0.0258539 0.467432 0.83117
1046 4 0.0302233 0.507065 0.833988
4 3 0.135682 0.582282 0.744599
3 3 0.110189 0.608086 0.785694
5 3 0.0952818 0.557855 0.771429
1 1 0.120717 0.578439 0.774284
2 3 0.142617 0.565834 0.795783
86 4 0.24576 0.522296 0.807241
1228 4 0.230294 0.557112 0.800466
1227 2 0.196345 0.556799 0.812622
722 4 0.0516844 0.675564 0.819529
721 4 0.110074 0.633289 0.817237
720 2 0.0808788 0.654427 0.818383
1002 2 0.486648 0.612093 0.771412
1141 4 0.0660245 0.720425 0.808786
1140 2 0.056619 0.755234 0.809311
1161 2 0.165756 0.73792 0.862529
393 2 0.32666 0.712813 0.818284
394 4 0.355555 0.696136 0.804593
890 4 0.381247 0.699273 0.778559
888 2 0.385482 0.680684 0.747949
889 4 0.389716 0.662096 0.717339
258 2 0.49783 0.709786 0.831584
1142 4 0.0472141 0.790044 0.809836
1294 4 0.0736524 0.823143 0.814237
70 4 0.0992525 0.827715 0.790208
69 2 0.121862 0.799913 0.794247
71 4 0.144471 0.772111 0.798287
1162 4 0.16623 0.751695 0.829205
703 4 0.383236 0.811536 0.726221
702 2 0.399046 0.834809 0.74878
704 4 0.414856 0.858081 0.771338
1295 4 0.0586098 0.893678 0.81469
1293 2 0.0661312 0.858411 0.814463
416 4 0.323868 0.908487 0.787681
414 2 0.356736 0.89889 0.776366
1397 4 0.456835 0.841461 0.762953
1395 2 0.483495 0.851668 0.784988
1204 4 0.0235941 0.00237431 0.993258
103 4 0.0517815 0.0122345 0.813473
102 2 0.0270798 0.00259642 0.789033
586 4 0.398866 0.97713 0.744168
930 2 0.370094 0.984844 0.80713
932 4 0.379351 0.987073 0.77235
415 4 0.389604 0.889293 0.765052
196 4 0.228293 0.0552116 0.895653
195 2 0.240165 0.0821749 0.916447
1174 4 0.422714 0.0526642 0.909786
1173 2 0.441738 0.0490742 0.879361
1175 4 0.460761 0.0454846 0.848938
811 4 0.351249 0.136941 0.850195
571 4 0.388906 0.0628784 0.903017
570 2 0.366278 0.0831819 0.883622
572 4 0.34365 0.103485 0.864227
799 4 0.43304 0.150791 0.836228
481 4 0.164152 0.198138 0.835083
480 2 0.16588 0.225473 0.85854
482 4 0.167608 0.252807 0.881998
1478 4 0.172829 0.237786 0.916944
1476 2 0.186806 0.262597 0.939067
1465 4 0.437871 0.354422 0.921292
591 2 0.0197287 0.418307 0.92565
1456 4 0.158859 0.319766 0.884461
1457 4 0.189479 0.380162 0.859635
1455 2 0.174169 0.349965 0.872048
1350 2 0.373232 0.386663 0.911929
1351 4 0.40256 0.3657 0.912853
1464 2 0.464104 0.350219 0.896908
1466 4 0.490337 0.346016 0.872524
593 4 0.00646821 0.441857 0.901776
961 4 0.202849 0.465051 0.891958
487 4 0.193305 0.495311 0.908616
1044 2 0.0199272 0.536278 0.852457
1045 4 0.00963156 0.565489 0.870925
488 4 0.159425 0.525313 0.852458
499 4 0.138992 0.540032 0.875959
1229 4 0.162396 0.556485 0.824779
486 2 0.176365 0.510312 0.880537
974 4 0.476469 0.576995 0.853702
701 4 0.479738 0.544662 0.83857
972 2 0.457614 0.585882 0.883129
144 2 0.0263857 0.596454 0.913912
146 4 0.00165359 0.622687 0.914713
1249 4 0.476431 0.857989 0.998524
1163 4 0.165281 0.724147 0.895854
780 2 0.216098 0.693457 0.918909
782 4 0.192277 0.698217 0.892256
395 4 0.297766 0.729491 0.831974
803 4 0.462338 0.706488 0.885046
260 4 0.468971 0.69874 0.850171
801 2 0.467097 0.729365 0.912511
1000 4 0.281432 0.755328 0.851959
999 2 0.264512 0.787067 0.849352
1001 4 0.247593 0.818806 0.846744
388 4 0.288968 0.848876 0.863621
528 2 0.41363 0.82089 0.88932
387 2 0.305789 0.872712 0.842424
389 4 0.32261 0.896547 0.821228
1189 4 0.396469 0.963218 0.836598
530 4 0.443457 0.83989 0.882264
1343 4 0.477623 0.847888 0.89836
1341 2 0.491569 0.837092 0.866905
300 2 0.0257721 0.00211781 0.874563
302 4 0.0272252 0.00605821 0.838747
1190 4 0.452836 0.940468 0.875418
1188 2 0.424653 0.951843 0.856008
442 4 0.488659 0.0226042 0.798824
197 4 0.252039 0.109139 0.937243
1353 2 0.296554 0.831268 0.988137
1439 4 0.0601456 0.168797 0.944195
1220 4 0.0627846 0.529761 0.539136
1437 2 0.0612036 0.183799 0.911419
1438 4 0.0622625 0.198802 0.878644
1354 4 0.316938 0.860988 0.989476
220 4 0.287699 0.119083 0.946189
219 2 0.298184 0.126651 0.979853
12 3 0.0114394 0.0491654 0.974674
1388 4 0.00689466 0.357716 0.842115
715 4 0.418181 0.143165 0.950774
714 2 0.428202 0.11508 0.971054
1477 4 0.200784 0.287408 0.961192
647 4 0.229714 0.300897 0.947936
645 2 0.259638 0.304236 0.967781
646 4 0.289562 0.307576 0.987626
174 2 0.436234 0.316915 0.977039
592 4 0.0329892 0.394756 0.949525
962 4 0.245765 0.429536 0.937768
573 2 0.288015 0.372086 0.984736
574 4 0.275722 0.340353 0.996668
1352 4 0.343905 0.407626 0.911005
175 4 0.442472 0.322111 0.941904
637 4 0.44179 0.403585 0.94141
960 2 0.224308 0.447293 0.914863
575 4 0.300308 0.403819 0.972804
995 4 0.494343 0.402702 0.978015
1127 4 0.318111 0.441306 0.977229
1125 2 0.328852 0.442427 0.942823
1126 4 0.339593 0.443548 0.908416
498 2 0.103744 0.542803 0.883053
500 4 0.0684968 0.545574 0.890149
369 2 0.308667 0.575732 0.965777
371 4 0.328195 0.553106 0.985955
368 4 0.361027 0.535275 0.981184
1218 2 0.0859702 0.535297 0.512077
973 4 0.438759 0.594771 0.912555
145 4 0.0511159 0.570221 0.91311
370 4 0.289139 0.598358 0.945599
1355 4 0.276174 0.801551 0.986798
376 4 0.336327 0.652474 0.899392
557 4 0.433147 0.620445 0.984243
1453 4 0.141073 0.747628 0.896864
1452 2 0.1122 0.743317 0.918035
781 4 0.239918 0.688698 0.945562
322 4 0.23092 0.725069 0.948407
377 4 0.376492 0.708403 0.920848
266 4 0.368552 0.748891 0.919915
375 2 0.35641 0.680438 0.91012
802 4 0.471857 0.752243 0.939977
1454 4 0.0833287 0.739007 0.939206
640 4 0.0593157 0.715315 0.930982
639 2 0.0414434 0.732177 0.957375
321 2 0.239453 0.759623 0.954205
323 4 0.247987 0.794177 0.960004
455 4 0.405436 0.784254 0.00780099
264 2 0.339379 0.768168 0.911093
265 4 0.310208 0.787445 0.902269
529 4 0.383804 0.80189 0.896377
453 2 0.404054 0.81719 0.993184
299 4 0.494733 0.339758 0.681136
1301 4 0.450454 0.747847 0.969722
636 2 0.437652 0.402467 0.977215
767 4 0.424757 0.354355 0.514652
1048 4 0.481468 0.32326 0.650254
1234 4 0.0400513 0.285582 0.992764
1180 4 0.469504 0.1773 0.99781
641 4 0.0235702 0.74904 0.983768
361 4 0.306267 0.950871 0.974875
1423 4 0.185126 0.124439 0.998486
1323 2 0.928995 0.916138 0.486015
1479 2 0.758056 0.0634532 0.0864826
1480 4 0.724588 0.0502021 0.0886552
1481 4 0.791524 0.0767042 0.0843111
1183 4 0.941651 0.0480686 0.0142226
14 3 0.972687 0.0650492 0.00908901
286 4 0.51027 0.475172 0.31957
1443 2 0.981116 0.737867 0.226677
1182 2 0.91494 0.0332934 0.033422
1172 4 0.720933 0.157756 0.0556762
1170 2 0.689381 0.169228 0.0425142
1136 4 0.75872 0.121327 0.0234709
1135 4 0.816645 0.126795 0.0660902
1134 2 0.787683 0.124061 0.0447806
142 4 0.933806 0.151108 0.06252
681 2 0.585406 0.945223 0.0128737
582 2 0.904755 0.839152 0.479061
1214 4 0.967769 0.927969 0.442886
550 4 0.677795 0.207963 0.0136034
1171 4 0.657829 0.1807 0.0293513
485 4 0.792883 0.208661 0.0195298
1417 4 0.779093 0.152122 0.0973492
522 2 0.896811 0.192657 0.0345108
523 4 0.893648 0.218384 0.00944053
524 4 0.899975 0.166929 0.0595805
364 4 0.607905 0.905569 0.494284
971 4 0.98852 0.464209 0.116531
1235 4 0.976622 0.273341 0.0248345
718 4 0.929192 0.322073 0.092258
1192 4 0.910795 0.281826 0.103166
1362 2 0.683299 0.397249 0.0347979
1364 4 0.676989 0.365232 0.0194512
717 2 0.922563 0.356968 0.0860286
309 2 0.508086 0.419706 0.0676278
1363 4 0.689609 0.429266 0.050145
856 4 0.702415 0.458635 0.069328
855 2 0.733646 0.47555 0.063092
1242 2 0.803159 0.538353 0.0350576
1244 4 0.785371 0.523355 0.0626091
1243 4 0.820947 0.553351 0.0075064
579 2 0.666031 0.6125 0.0053597
1325 4 0.948359 0.944723 0.475607
580 4 0.691172 0.624528 0.0282438
599 4 0.801487 0.615317 0.0527144
947 4 0.899101 0.598329 0.0749429
598 4 0.872337 0.622607 0.0640582
597 2 0.836912 0.618963 0.0583862
63 2 0.578301 0.795048 0.0154991
64 4 0.555564 0.789843 0.0430014
709 4 0.594447 0.836602 0.0926139
734 4 0.698057 0.887992 0.0415049
1111 4 0.91043 0.806905 0.035535
1110 2 0.886127 0.784222 0.0495083
1112 4 0.861824 0.761539 0.0634813
683 4 0.559624 0.922506 0.0238145
968 4 0.562595 0.888868 0.0420196
966 2 0.561465 0.856264 0.0573857
733 4 0.765175 0.864976 0.0285768
732 2 0.731616 0.876484 0.0350407
108 2 0.849792 0.915447 0.0503336
687 2 0.900119 0.287036 0.00770698
1469 4 0.760176 0.90889 0.995298
1467 2 0.790489 0.928271 0.997715
110 4 0.843383 0.921743 0.0154101
44 3 0.945493 0.995262 0.0455244
45 3 0.970725 0.948264 0.0353601
1184 4 0.888229 0.018518 0.0526215
42 3 0.965092 0.965191 0.0861442
41 1 0.950822 0.964002 0.0562168
89 4 0.677519 0.0805288 0.178399
62 4 0.970809 0.998121 0.0730711
60 2 0.983908 0.0171498 0.100762
61 4 0.997006 0.0361782 0.128452
166 4 0.752604 0.203198 0.158885
165 2 0.772401 0.213732 0.187125
1418 4 0.761084 0.221674 0.103668
1416 2 0.770089 0.186899 0.100509
143 4 0.997065 0.159285 0.0961801
141 2 0.965436 0.155196 0.0793499
149 4 0.898279 0.246585 0.151039
1421 4 0.982314 0.247879 0.129545
684 2 0.58957 0.313353 0.165013
1193 4 0.981381 0.281111 0.117954
1191 2 0.946088 0.281468 0.11056
685 4 0.591402 0.301485 0.13101
1503 2 0.572013 0.363511 0.103507
1504 4 0.565752 0.395727 0.0885643
1505 4 0.578274 0.331294 0.11845
719 4 0.915935 0.391863 0.0797999
1493 4 0.986575 0.417594 0.114992
1491 2 0.971638 0.395379 0.139153
310 4 0.54179 0.406969 0.0661251
857 4 0.764878 0.492464 0.0568549
515 4 0.884328 0.493408 0.175529
1274 4 0.69875 0.525308 0.0721457
1272 2 0.664007 0.515678 0.0729073
1273 4 0.629264 0.506047 0.0736697
514 4 0.887506 0.558352 0.144325
513 2 0.885917 0.52588 0.159927
1067 4 0.617325 0.619102 0.151834
910 4 0.751104 0.637917 0.144641
945 2 0.909995 0.582924 0.105674
946 4 0.920887 0.567519 0.136407
875 4 0.613997 0.749892 0.0637638
873 2 0.635713 0.722628 0.0730108
874 4 0.657428 0.695363 0.0822576
401 4 0.824034 0.741342 0.140101
710 4 0.625518 0.771518 0.0931594
708 2 0.609983 0.80406 0.0928868
399 2 0.85285 0.762205 0.134202
400 4 0.881665 0.783067 0.128302
676 4 0.869352 0.811331 0.145635