ITEM: TIMESTEP
312000
ITEM: NUMBER OF ATOMS
1520
ITEM: BOX BOUNDS pp pp pp
-6.9326749999999997e+00 6.9326749999999997e+00
-6.9326749999999997e+00 6.9326749999999997e+00
-6.9326749999999997e+00 6.9326749999999997e+00
ITEM: ATOMS id type xs ys zs
620 4 0.462973 0.99855 0.0426479
618 2 0.482723 0.0138095 0.0686762
9 3 0.442189 0.088439 0.0467714
89 4 0.135601 0.0990768 0.0711217
10 3 0.40634 0.101716 0.00820524
7 3 0.426066 0.139834 0.0406892
6 1 0.433031 0.111708 0.0245317
263 4 0.0160106 0.540603 0.372765
1036 4 0.108095 0.183783 0.0615204
1035 2 0.0861187 0.187703 0.0331984
307 4 0.0168641 0.707151 0.408651
1170 2 0.393951 0.291851 0.0830595
1171 4 0.37721 0.271863 0.107972
1116 2 0.447434 0.262309 0.0302698
1172 4 0.410693 0.311839 0.0581477
1117 4 0.419641 0.283928 0.0380522
950 4 0.435233 0.335188 0.050249
948 2 0.431186 0.368225 0.0363714
949 4 0.42714 0.401263 0.0224941
937 4 0.452441 0.429603 0.0294042
977 4 0.0870154 0.453543 0.0478795
975 2 0.0903621 0.4301 0.0750765
976 4 0.0937081 0.406658 0.102273
549 2 0.0436709 0.916917 0.468025
509 4 0.406478 0.539336 0.0751372
732 2 0.00923839 0.575071 0.0693864
733 4 0.04137 0.5885 0.0600259
831 2 0.431495 0.620338 0.0349149
443 4 0.03432 0.7301 0.0363821
832 4 0.420408 0.59001 0.0188625
911 4 0.089928 0.882322 0.0568444
1430 4 0.0962118 0.846863 0.0646482
441 2 0.017917 0.762214 0.0361944
909 2 0.0875784 0.869724 0.0231372
215 4 0.301395 0.809351 0.0162242
213 2 0.268098 0.800843 0.00530124
1177 4 0.308463 0.826569 0.0461505
27 3 0.385317 0.805399 0.132089
457 4 0.00783666 0.937484 0.0296546
141 2 0.180186 0.868757 0.0420784
142 4 0.170275 0.885824 0.0118969
143 4 0.190097 0.851691 0.0722598
1176 2 0.341594 0.838215 0.0379594
1178 4 0.374725 0.849862 0.0297687
458 4 0.0754552 0.929173 0.0533254
456 2 0.041646 0.933329 0.0414903
427 4 0.0855381 0.952226 0.0231034
800 4 0.206427 0.942757 0.0795742
799 4 0.151591 0.953846 0.034058
798 2 0.179009 0.948302 0.0568162
1181 4 0.449576 0.97572 0.0161277
1146 2 0.0385694 0.482762 0.00430718
375 2 0.0887667 0.0760428 0.0852867
377 4 0.099333 0.0990893 0.0596425
87 2 0.168518 0.0875226 0.0802542
174 2 0.154732 0.00441043 0.110791
176 4 0.137452 0.0257647 0.134154
88 4 0.201434 0.0759682 0.0893867
178 4 0.367319 0.0720638 0.137643
177 2 0.350765 0.0400318 0.138212
849 2 0.425856 0.988761 0.132334
850 4 0.419786 0.0191094 0.113826
317 4 0.172296 0.974347 0.43894
669 2 0.109791 0.0427313 0.43283
327 2 0.0098267 0.165718 0.164831
376 4 0.0782007 0.0529964 0.110931
329 4 0.0280968 0.191075 0.18282
674 4 0.0854595 0.186057 0.13635
673 4 0.124939 0.156258 0.0838612
672 2 0.1052 0.171158 0.110106
1258 4 0.396938 0.228494 0.151288
1257 2 0.362977 0.216914 0.154888
804 2 0.0247826 0.256011 0.168591
1504 4 0.00458734 0.316264 0.135905
658 4 0.20271 0.325767 0.145375
657 2 0.212464 0.293745 0.131964
659 4 0.222218 0.261723 0.118553
890 4 0.137925 0.362337 0.179858
1115 4 0.0149056 0.421926 0.160207
1114 4 0.0569093 0.416889 0.101795
1113 2 0.0359073 0.419408 0.131001
1264 4 0.305897 0.422834 0.181145
1263 2 0.33662 0.417353 0.199214
1463 4 0.42393 0.467506 0.140098
1461 2 0.456415 0.459474 0.153537
1462 4 0.4889 0.451441 0.166977
1367 4 0.248844 0.518953 0.136514
1365 2 0.224141 0.53988 0.120633
1366 4 0.199437 0.560807 0.104753
1285 4 0.276455 0.499891 0.152029
941 4 0.209888 0.611279 0.144911
508 4 0.351604 0.533275 0.121546
507 2 0.379041 0.536306 0.0983415
1360 4 0.367185 0.521648 0.156655
1118 4 0.475227 0.240689 0.0224873
939 2 0.175182 0.601494 0.145352
940 4 0.140477 0.591709 0.145793
900 2 0.259074 0.6423 0.0508649
902 4 0.245701 0.612364 0.0358516
901 4 0.272448 0.672236 0.0658785
1232 4 0.22738 0.622646 0.173499
873 2 0.321814 0.632017 0.0976286
875 4 0.351598 0.617269 0.111621
874 4 0.292029 0.646765 0.0836357
1469 4 0.356859 0.63312 0.144402
48 3 0.475722 0.69498 0.117656
49 3 0.447784 0.673868 0.0754881
46 1 0.445714 0.684554 0.107133
47 3 0.435769 0.659385 0.126324
15 3 0.180652 0.736395 0.201152
425 4 0.243444 0.727096 0.153505
423 2 0.24839 0.708046 0.123288
424 4 0.253337 0.688996 0.0930718
1088 4 0.413647 0.694635 0.136133
1086 2 0.394999 0.712039 0.161623
50 3 0.423948 0.709058 0.109286
833 4 0.442582 0.650666 0.0509668
442 4 0.0015137 0.794329 0.0360069
1428 2 0.111286 0.830554 0.0930594
1429 4 0.126361 0.814244 0.12147
12 3 0.194227 0.755588 0.152731
275 4 0.165184 0.812159 0.17013
13 3 0.233041 0.742507 0.188237
11 1 0.202219 0.755114 0.184927
273 2 0.194686 0.830427 0.160315
28 3 0.401411 0.798101 0.0808428
233 4 0.439336 0.74386 0.114066
26 1 0.387037 0.819551 0.102131
29 3 0.356047 0.826845 0.091817
231 2 0.457666 0.774333 0.120053
232 4 0.475997 0.804805 0.126041
595 4 0.501023 0.809551 0.153481
1240 4 0.996487 0.881187 0.138754
1148 4 0.0656269 0.475694 0.0270741
1160 4 0.236468 0.873834 0.174649
30 3 0.404931 0.847019 0.104154
175 4 0.172011 0.983056 0.0874278
179 4 0.33421 0.00800016 0.138781
851 4 0.431925 0.958412 0.150842
102 2 0.462865 0.920628 0.156368
103 4 0.463629 0.949772 0.135145
794 4 0.0658618 0.0750987 0.206996
792 2 0.0721002 0.0403028 0.199874
793 4 0.0783389 0.00550684 0.192751
1500 2 0.195974 0.0102343 0.246454
1501 4 0.208989 0.996998 0.215538
788 4 0.229244 0.0268497 0.214053
786 2 0.25474 0.0514913 0.207486
787 4 0.280236 0.0761328 0.200917
193 4 0.317903 0.181682 0.184193
530 4 0.493914 0.210391 0.119928
806 4 0.0338417 0.222162 0.177104
382 4 0.0652443 0.177838 0.170854
383 4 0.0834369 0.170831 0.240291
381 2 0.074341 0.174335 0.205573
277 4 0.130635 0.169731 0.23918
276 2 0.165543 0.162754 0.233416
1311 2 0.217328 0.219514 0.202408
278 4 0.20045 0.155778 0.227651
1312 4 0.202026 0.193155 0.221677
1313 4 0.232631 0.245876 0.183138
192 2 0.289863 0.204278 0.182306
194 4 0.261822 0.226874 0.180418
1259 4 0.329016 0.205334 0.158487
1465 4 0.296927 0.3052 0.197798
1464 2 0.330192 0.318209 0.192841
1466 4 0.363458 0.331219 0.187885
1008 2 0.484565 0.334817 0.201731
1009 4 0.449625 0.326043 0.203344
94 4 0.077665 0.351167 0.254426
888 2 0.114558 0.389799 0.180324
889 4 0.0911914 0.417262 0.18079
1403 4 0.427252 0.317073 0.245534
1401 2 0.407212 0.34697 0.247765
452 4 0.0926076 0.412128 0.216543
450 2 0.0731249 0.427144 0.242913
1265 4 0.367343 0.411873 0.217284
667 4 0.401646 0.407731 0.240365
666 2 0.406455 0.442779 0.233371
668 4 0.411264 0.477827 0.226377
932 4 0.482342 0.474895 0.195095
812 4 0.12349 0.593128 0.179814
810 2 0.134555 0.573759 0.208148
1286 4 0.299409 0.477632 0.216676
1284 2 0.287933 0.488762 0.184353
1274 4 0.32984 0.48833 0.231157
1359 2 0.387745 0.496999 0.173091
1361 4 0.408306 0.47235 0.189525
1468 4 0.36853 0.589887 0.200938
843 2 0.464979 0.586398 0.248068
844 4 0.470083 0.599599 0.2149
1230 2 0.246948 0.602536 0.19615
1231 4 0.266516 0.582426 0.218802
199 4 0.197846 0.633495 0.20338
1467 2 0.362694 0.611504 0.17267
290 4 0.0520216 0.757389 0.145714
356 4 0.00765977 0.728592 0.24569
288 2 0.0798239 0.73629 0.154785
198 2 0.188317 0.668192 0.20098
200 4 0.178789 0.702888 0.19858
14 3 0.201344 0.786407 0.196753
1087 4 0.376351 0.729442 0.187114
354 2 0.0156723 0.76371 0.2474
289 4 0.107626 0.715191 0.163855
1293 2 0.137477 0.781669 0.248702
1295 4 0.111243 0.780675 0.273425
1294 4 0.163711 0.782663 0.22398
648 2 0.495564 0.746897 0.23317
1336 4 0.0156784 0.672943 0.410636
274 4 0.224188 0.848695 0.150501
313 4 0.195427 0.879593 0.217829
1158 2 0.272279 0.878039 0.174123
1159 4 0.308091 0.882243 0.173597
632 4 0.315444 0.910355 0.155228
559 4 0.419728 0.852479 0.225322
596 4 0.476939 0.864501 0.193506
594 2 0.488981 0.837026 0.173493
104 4 0.462101 0.891484 0.177591
481 4 0.218499 0.94765 0.159061
480 2 0.211886 0.931022 0.190369
482 4 0.205274 0.914395 0.221677
630 2 0.330122 0.937109 0.174442
631 4 0.3448 0.963863 0.193656
729 2 0.367631 0.973067 0.267542
730 4 0.37546 0.00386054 0.250488
119 4 0.115933 0.989903 0.307933
1502 4 0.182958 0.0234703 0.27737
859 4 0.20497 0.0126443 0.304695
858 2 0.202329 0.0427591 0.324355
519 2 0.413452 0.0431063 0.288096
521 4 0.388389 0.0337316 0.263922
520 4 0.438515 0.052482 0.31227
1375 4 0.441439 0.0846482 0.340191
206 4 0.116738 0.194358 0.324196
1497 2 0.225363 0.139746 0.279704
1498 4 0.246969 0.147267 0.307579
690 2 0.348211 0.124076 0.258123
691 4 0.328027 0.149953 0.243174
692 4 0.368394 0.0982 0.273071
320 4 0.41428 0.105875 0.319837
318 2 0.427007 0.139474 0.322928
1376 4 0.501787 0.075069 0.378506
1374 2 0.471613 0.0798586 0.359349
204 2 0.110594 0.194087 0.288663
205 4 0.104451 0.193816 0.25313
1499 4 0.203757 0.132223 0.251831
319 4 0.439734 0.173072 0.326019
1058 4 0.203838 0.280396 0.301606
1056 2 0.192398 0.31441 0.298061
1314 2 0.329384 0.335228 0.3137
1315 4 0.298298 0.31814 0.320186
163 4 0.429574 0.301455 0.279548
93 2 0.112179 0.348546 0.264541
95 4 0.146694 0.345925 0.274656
664 4 0.202754 0.376135 0.291223
1057 4 0.180957 0.348423 0.294516
1079 4 0.247754 0.401768 0.215098
1075 4 0.388422 0.367137 0.288965
1316 4 0.36047 0.352316 0.307213
1402 4 0.387173 0.376867 0.249996
1074 2 0.379411 0.397903 0.305478
611 4 0.0429523 0.471524 0.288576
451 4 0.0536419 0.44216 0.269282
609 2 0.0680784 0.464863 0.313571
1243 4 0.190846 0.491549 0.229029
1077 2 0.264059 0.405682 0.247024
1078 4 0.280364 0.409595 0.278949
1272 2 0.316966 0.464646 0.255109
1273 4 0.304091 0.440961 0.279061
1186 4 0.492235 0.572379 0.312279
811 4 0.145621 0.55439 0.236482
1244 4 0.152242 0.53733 0.269223
1242 2 0.171544 0.51444 0.249126
906 2 0.389374 0.508728 0.279698
908 4 0.38144 0.527163 0.249738
1037 4 0.0641434 0.191623 0.00487663
1507 4 0.131156 0.634957 0.322951
65 4 0.399554 0.651421 0.312765
845 4 0.459875 0.573197 0.281236
64 4 0.445226 0.604524 0.282495
63 2 0.42239 0.627972 0.29763
1399 4 0.229012 0.714413 0.28495
1398 2 0.242186 0.747962 0.283823
1030 4 0.459484 0.71675 0.315226
341 4 0.48991 0.702346 0.304466
1400 4 0.255361 0.781511 0.282697
1152 2 0.315286 0.821833 0.28181
925 4 0.293655 0.852548 0.323298
1153 4 0.290342 0.819707 0.307765
650 4 0.470106 0.761475 0.254141
1029 2 0.450777 0.749517 0.327509
1287 2 0.189062 0.864484 0.336095
1288 4 0.17989 0.843368 0.308338
314 4 0.197788 0.869377 0.289185
312 2 0.196607 0.874485 0.253507
1154 4 0.34023 0.82396 0.255855
560 4 0.355606 0.819487 0.226535
558 2 0.387667 0.835983 0.225929
731 4 0.359802 0.942273 0.284597
860 4 0.199688 0.072874 0.344015
1046 4 0.169136 0.0845938 0.358867
679 4 0.0500334 0.143843 0.382016
678 2 0.0398967 0.141511 0.416545
1044 2 0.178522 0.118221 0.367895
1063 4 0.0497028 0.214149 0.38283
371 4 0.237488 0.219704 0.39094
369 2 0.214532 0.241017 0.408806
586 4 0.259957 0.20183 0.365815
1069 4 0.492471 0.257146 0.405717
393 2 0.179948 0.306269 0.399364
394 4 0.176236 0.29916 0.434525
1054 4 0.504366 0.267096 0.441161
663 2 0.176243 0.399516 0.298355
395 4 0.183661 0.313373 0.364206
665 4 0.149731 0.422897 0.305488
1165 4 0.183157 0.414456 0.381197
1076 4 0.370401 0.428669 0.321991
1303 4 0.392559 0.25242 0.0141155
610 4 0.0932045 0.458203 0.338565
1101 2 0.408888 0.490193 0.37029
1102 4 0.419836 0.468709 0.397103
1103 4 0.39794 0.511676 0.343475
907 4 0.397309 0.490294 0.309659
1508 4 0.068921 0.600781 0.310284
261 2 0.0386217 0.564407 0.357848
262 4 0.0612328 0.588211 0.342932
1302 2 0.363869 0.237989 0.997714
1506 2 0.100039 0.617869 0.316617
91 4 0.224847 0.641783 0.402778
758 4 0.250096 0.642672 0.377414
756 2 0.284987 0.633792 0.379459
757 4 0.319878 0.624912 0.381503
686 4 0.339117 0.654063 0.369086
684 2 0.363524 0.636958 0.389387
685 4 0.387931 0.619852 0.409688
308 4 0.0519059 0.753159 0.365559
306 2 0.0343851 0.730155 0.387105
1161 2 0.073024 0.802632 0.42997
1162 4 0.0455687 0.80775 0.407158
1163 4 0.10048 0.797515 0.452783
1031 4 0.44207 0.782285 0.339791
1289 4 0.198234 0.885599 0.363851
926 4 0.285659 0.923816 0.330947
924 2 0.289657 0.888182 0.327122
857 4 0.444395 0.857916 0.39237
670 4 0.098012 0.0152201 0.41271
117 2 0.11117 0.995905 0.343171
118 4 0.106406 0.00190753 0.378409
316 4 0.239221 0.9782 0.465545
315 2 0.205758 0.976273 0.452242
671 4 0.12157 0.0702425 0.452949
680 4 0.0297598 0.13918 0.451073
244 4 0.0420312 0.105435 0.457676
1045 4 0.187907 0.151848 0.376924
988 4 0.331826 0.168436 0.430455
987 2 0.343268 0.141929 0.452062
989 4 0.35471 0.115422 0.47367
1064 4 0.0302672 0.241796 0.446544
1062 2 0.039985 0.227973 0.414687
370 4 0.191575 0.262334 0.426674
585 2 0.279236 0.184164 0.390647
676 4 0.311917 0.171763 0.493298
587 4 0.298514 0.166498 0.415481
403 4 0.402619 0.249179 0.488893
54 2 0.165623 0.255681 0.491909
55 4 0.165955 0.26753 0.457849
1397 4 0.203597 0.282745 0.459669
1395 2 0.238714 0.286008 0.467208
1396 4 0.273828 0.28927 0.474744
826 4 0.310248 0.286041 0.468839
719 4 0.0092374 0.612979 0.29258
1055 4 0.46519 0.274818 0.501221
825 2 0.341803 0.268666 0.467156
827 4 0.373357 0.251291 0.465474
1053 2 0.484778 0.270957 0.471191
465 2 0.0875743 0.375649 0.481441
467 4 0.0881115 0.375261 0.445386
1164 2 0.215976 0.399577 0.382601
265 4 0.0245742 0.678957 0.471232
1166 4 0.248794 0.384699 0.384006
1330 4 0.331392 0.450413 0.507073
136 4 0.307493 0.425746 0.494153
226 4 0.388066 0.445143 0.483665
162 2 0.446988 0.282174 0.304557
225 2 0.418475 0.429222 0.472611
227 4 0.448884 0.413301 0.461557
660 2 0.0507298 0.566748 0.484541
661 4 0.0847192 0.578772 0.485281
607 4 0.0841283 0.538581 0.48469
606 2 0.103458 0.511925 0.499395
550 4 0.0713876 0.930665 0.449499
1321 4 0.0924093 0.609605 0.456238
1322 4 0.136779 0.663139 0.437079
1320 2 0.114594 0.636372 0.446658
92 4 0.154202 0.656218 0.404341
90 2 0.189524 0.649001 0.403559
447 2 0.393006 0.605869 0.451908
448 4 0.394046 0.585754 0.421996
703 4 0.0238582 0.715475 0.460736
264 2 0.0571634 0.688452 0.483405
266 4 0.0897523 0.697948 0.495578
1205 4 0.184539 0.705437 0.47096
1068 2 0.48725 0.24403 0.372533
1156 4 0.413228 0.683191 0.475518
583 4 0.127924 0.776615 0.440784
582 2 0.161797 0.770821 0.451713
584 4 0.19567 0.765026 0.462642
367 4 0.473086 0.856424 0.41819
131 4 0.206798 0.793264 0.47558
297 2 0.359182 0.841772 0.459264
299 4 0.359696 0.876678 0.450222
715 4 0.0167982 0.817311 0.389802
551 4 0.0159545 0.903169 0.486551
1070 4 0.482028 0.230914 0.33935
366 2 0.496824 0.855076 0.445303
856 4 0.391426 0.857835 0.441318
855 2 0.417911 0.857876 0.416843
164 4 0.464402 0.262893 0.329565
805 4 0.0157238 0.289862 0.160078
355 4 0.0236846 0.798828 0.24911
243 2 0.043679 0.0763998 0.478999
662 4 0.0167405 0.554724 0.4838
1108 4 0.428285 0.281118 0.505134
298 4 0.358669 0.806867 0.468306
936 2 0.483422 0.447951 0.0314098
129 2 0.233741 0.778138 0.494173
449 4 0.391967 0.625985 0.481819
361 4 0.00077615 0.423532 0.48296
1453 4 0.330474 0.0426755 0.514748
1452 2 0.349197 0.0421748 0.545564
1220 4 0.443351 0.040967 0.575822
1520 4 0.488348 0.963382 0.653657
245 4 0.0453268 0.0473651 0.500322
785 4 0.0322666 0.0977112 0.615044
409 4 0.0622221 0.192887 0.624453
223 4 0.295581 0.129363 0.593419
675 2 0.30741 0.166449 0.52868
1351 4 0.303788 0.168619 0.599271
677 4 0.302903 0.161135 0.564062
402 2 0.42141 0.223789 0.50629
404 4 0.440201 0.1984 0.523687
436 4 0.445962 0.181094 0.550615
435 2 0.472664 0.159769 0.539098
56 4 0.165295 0.243833 0.525966
965 4 0.1915 0.263318 0.540088
963 2 0.222855 0.28056 0.544562
964 4 0.25421 0.297801 0.549036
1107 2 0.418857 0.303341 0.531923
1109 4 0.409428 0.325563 0.558713
466 4 0.0870371 0.376037 0.517497
230 4 0.0891583 0.412208 0.522177
137 4 0.296947 0.379278 0.548292
135 2 0.30222 0.402512 0.521222
228 2 0.0894747 0.443242 0.54054
229 4 0.0897912 0.474276 0.558903
1021 4 0.142002 0.515028 0.522551
1331 4 0.371944 0.509899 0.511381
191 4 0.189137 0.856478 0.942392
1022 4 0.176616 0.505139 0.585047
1020 2 0.159309 0.510083 0.553799
326 4 0.273197 0.471514 0.604672
1141 4 0.410269 0.51305 0.517999
1140 2 0.397438 0.546533 0.514172
995 4 0.435358 0.608959 0.576303
1142 4 0.384606 0.580016 0.510346
1012 4 0.184193 0.686139 0.541308
1011 2 0.176984 0.66042 0.565536
566 4 0.230688 0.622432 0.60649
564 2 0.246908 0.654547 0.604047
993 2 0.413369 0.610958 0.547792
994 4 0.39138 0.612958 0.519281
910 4 0.0852289 0.857126 0.98943
1204 4 0.149079 0.699932 0.533521
565 4 0.263128 0.68666 0.601604
345 2 0.281438 0.734795 0.565107
347 4 0.25702 0.70996 0.574456
407 4 0.46987 0.710037 0.553707
1157 4 0.45646 0.680181 0.533168
405 2 0.481276 0.688876 0.580587
543 2 0.00958266 0.476794 0.834687
839 4 0.0908407 0.81172 0.567484
1480 4 0.156111 0.780714 0.538651
346 4 0.305856 0.759629 0.555759
1479 2 0.162984 0.816114 0.538573
1483 4 0.0396349 0.895845 0.517786
1484 4 0.079036 0.907068 0.577144
45 3 0.19058 0.869637 0.567489
1482 2 0.0593362 0.901457 0.547466
44 3 0.153667 0.847204 0.600397
41 1 0.163039 0.875133 0.584521
1481 4 0.169856 0.851514 0.538497
633 2 0.196703 0.88676 0.51393
635 4 0.188251 0.852614 0.505995
1436 4 0.00726343 0.908679 0.912907
598 4 0.00768662 0.877473 0.51305
1454 4 0.367921 0.041674 0.576379
998 4 0.296344 0.00889497 0.683223
996 2 0.327065 0.0271423 0.678361
1219 4 0.386708 0.0428084 0.620429
1218 2 0.41503 0.0418877 0.598126
222 2 0.328746 0.120186 0.604203
224 4 0.361911 0.11101 0.614986
1196 4 0.394551 0.126068 0.608391
1194 2 0.410323 0.158187 0.603917
301 4 0.0866881 0.264318 0.687562
410 4 0.0654409 0.133182 0.584122
408 2 0.0638314 0.163035 0.604287
496 4 0.0906849 0.269565 0.652707
495 2 0.121111 0.264721 0.633966
1350 2 0.313689 0.201193 0.611161
1352 4 0.323589 0.233765 0.623051
1195 4 0.426095 0.190306 0.599443
1192 4 0.453326 0.203758 0.577281
1191 2 0.47695 0.206062 0.604429
497 4 0.151536 0.259876 0.615224
1130 4 0.202603 0.333706 0.653239
1128 2 0.205903 0.298587 0.645744
1129 4 0.209203 0.263468 0.638249
150 2 0.318274 0.275884 0.663491
152 4 0.331011 0.265723 0.631321
325 4 0.213295 0.507863 0.58758
1514 4 0.297541 0.439912 0.643775
1512 2 0.313 0.443935 0.611445
1513 4 0.328458 0.447958 0.579115
745 4 0.416115 0.433243 0.618851
689 4 0.177141 0.553889 0.542149
687 2 0.188666 0.581812 0.561842
324 2 0.243246 0.489689 0.596126
614 4 0.46549 0.476328 0.71802
1082 4 0.351176 0.567484 0.645142
130 4 0.260684 0.763013 0.512766
612 2 0.49605 0.494859 0.722825
211 4 0.0545421 0.649996 0.612842
210 2 0.0598522 0.630156 0.642483
212 4 0.0651625 0.610315 0.672123
33 3 0.162214 0.601086 0.66682
31 1 0.149992 0.623845 0.688094
34 3 0.131856 0.646492 0.671418
688 4 0.200191 0.609736 0.581537
397 4 0.350042 0.672566 0.621128
504 2 0.470861 0.634897 0.652234
506 4 0.460222 0.634696 0.686689
1013 4 0.169775 0.634702 0.589764
396 2 0.318688 0.689148 0.614615
505 4 0.481499 0.635097 0.617779
406 4 0.492681 0.667714 0.607466
837 2 0.0792844 0.832585 0.594531
838 4 0.0677284 0.85345 0.621577
701 4 0.0816076 0.883793 0.639657
699 2 0.114302 0.898856 0.637508
42 3 0.138908 0.884213 0.563642
700 4 0.146996 0.913918 0.635357
43 3 0.168018 0.899733 0.606656
333 2 0.21635 0.904473 0.643062
335 4 0.195 0.881588 0.625149
334 4 0.237699 0.927359 0.660974
1260 2 0.306152 0.927612 0.658316
1262 4 0.339918 0.933475 0.647095
743 4 0.060697 0.021271 0.700824
741 2 0.0706496 0.055478 0.695236
742 4 0.080602 0.0896851 0.689647
997 4 0.357786 0.0453898 0.673498
1197 2 0.406753 0.067256 0.708048
254 4 0.473325 0.0655529 0.718685
252 2 0.496859 0.0434037 0.702686
1198 4 0.439998 0.0801887 0.713329
487 4 0.0915367 0.1657 0.72451
1199 4 0.373507 0.0543236 0.702767
304 4 0.412701 0.144645 0.722007
300 2 0.0903512 0.229879 0.697611
302 4 0.0940147 0.195442 0.70766
470 4 0.286977 0.263468 0.718544
468 2 0.27808 0.229271 0.725743
303 2 0.39629 0.172238 0.705583
305 4 0.379879 0.19983 0.689159
385 4 0.386753 0.228382 0.70953
878 4 0.13921 0.33462 0.782026
958 4 0.175454 0.362914 0.680373
151 4 0.305537 0.286046 0.695661
469 4 0.269182 0.195074 0.732941
386 4 0.412645 0.294918 0.699325
384 2 0.3997 0.26165 0.704427
957 2 0.146422 0.341965 0.676047
379 4 0.206718 0.422399 0.75329
959 4 0.117391 0.321015 0.67172
955 4 0.352874 0.430299 0.700173
744 2 0.399377 0.436334 0.650642
746 4 0.382639 0.439426 0.682434
399 2 0.465915 0.339596 0.708328
401 4 0.44184 0.312754 0.708826
400 4 0.48999 0.366439 0.70783
1329 2 0.351668 0.480156 0.509227
1149 2 0.0182643 0.463085 0.752069
956 4 0.288445 0.417373 0.67045
954 2 0.32066 0.423836 0.685312
258 2 0.272146 0.466813 0.756895
259 4 0.302511 0.458644 0.77455
1081 4 0.412883 0.538487 0.621624
1080 2 0.38203 0.552985 0.633383
35 3 0.174609 0.638695 0.703979
32 3 0.130441 0.608544 0.710101
708 2 0.136448 0.748171 0.754452
398 4 0.287335 0.70573 0.608102
709 4 0.129776 0.783101 0.74847
167 4 0.306986 0.804243 0.673137
165 2 0.326463 0.799312 0.703082
166 4 0.345941 0.79438 0.733027
1261 4 0.272386 0.921749 0.669537
886 4 0.405225 0.89707 0.733884
536 4 0.0830034 0.968147 0.73693
535 4 0.119721 0.948767 0.677956
534 2 0.101362 0.958457 0.707443
643 4 0.203442 0.163648 0.778252
486 2 0.0673775 0.166018 0.75128
623 4 0.0368063 0.17713 0.814534
488 4 0.0432183 0.166336 0.778051
58 4 0.161302 0.241902 0.741642
642 2 0.219598 0.188002 0.757128
644 4 0.235755 0.212357 0.736005
1491 2 0.447345 0.178565 0.81354
1492 4 0.470767 0.169242 0.787754
59 4 0.155591 0.309316 0.766627
57 2 0.158446 0.275609 0.754135
1266 2 0.0403933 0.403002 0.820841
1267 4 0.00956689 0.415226 0.835008
876 2 0.107118 0.350979 0.780341
877 4 0.0750252 0.367339 0.778657
1268 4 0.0712197 0.390778 0.806674
378 2 0.219167 0.404521 0.782027
380 4 0.231616 0.386642 0.810763
592 4 0.26125 0.402542 0.795239
591 2 0.286672 0.395232 0.819749
934 4 0.383528 0.384415 0.757647
933 2 0.390271 0.412703 0.778971
593 4 0.312094 0.387922 0.844258
1151 4 0.0485071 0.461751 0.771665
545 4 0.026546 0.470547 0.803483
295 4 0.223304 0.502975 0.755817
260 4 0.241782 0.474982 0.739241
935 4 0.397016 0.440991 0.800296
1028 4 0.428547 0.443044 0.825785
1290 2 0.442587 0.484547 0.782703
1292 4 0.434131 0.449658 0.786126
752 4 0.0221278 0.558221 0.783535
750 2 0.0378488 0.549854 0.814892
296 4 0.162221 0.540359 0.764357
185 4 0.0819862 0.518284 0.851364
294 2 0.192762 0.521667 0.760087
160 4 0.277 0.567732 0.780107
159 2 0.269197 0.570456 0.815208
854 4 0.429115 0.528472 0.807865
852 2 0.394337 0.537757 0.810031
853 4 0.35956 0.547042 0.812197
97 4 0.34303 0.526653 0.836979
1291 4 0.451043 0.519435 0.779283
608 4 0.122788 0.485269 0.514099
77 4 0.190179 0.679058 0.817183
161 4 0.261395 0.573179 0.850309
1039 4 0.383065 0.627642 0.765561
1038 2 0.3732 0.622571 0.799874
1040 4 0.363334 0.617501 0.834187
710 4 0.143121 0.713242 0.760435
1406 4 0.0219817 0.752575 0.87185
76 4 0.155551 0.68299 0.75404
75 2 0.172865 0.681024 0.785612
433 4 0.156035 0.804294 0.735493
434 4 0.198223 0.819907 0.791867
432 2 0.177129 0.812101 0.76368
1000 4 0.231752 0.815733 0.777243
1001 4 0.291783 0.790087 0.807905
999 2 0.261768 0.80291 0.792574
885 2 0.436867 0.90514 0.749183
887 4 0.468509 0.913209 0.764482
1391 4 0.140959 0.936347 0.935948
463 4 0.304948 0.123369 0.853749
462 2 0.339249 0.134497 0.853549
464 4 0.373549 0.145625 0.853349
891 2 0.0846924 0.211607 0.936814
893 4 0.098868 0.179373 0.944587
892 4 0.0705169 0.243841 0.929041
1493 4 0.423923 0.187888 0.839325
145 4 0.100587 0.264743 0.917143
1007 4 0.099157 0.293772 0.863247
1005 2 0.133638 0.302291 0.857008
1006 4 0.168118 0.31081 0.85077
1384 4 0.381197 0.348049 0.866888
791 4 0.00146631 0.414209 0.870118
1515 2 0.216071 0.419606 0.915466
1383 2 0.35008 0.351799 0.849054
1385 4 0.318962 0.355549 0.831221
1026 2 0.443047 0.430381 0.85628
1027 4 0.457545 0.417719 0.886774
107 4 0.492052 0.406622 0.896555
789 2 0.0132925 0.410743 0.904008
184 4 0.0928354 0.48423 0.914008
1334 4 0.109065 0.45404 0.923743
1517 4 0.235887 0.41263 0.944775
797 4 0.248508 0.443348 0.95843
951 2 0.352295 0.440899 0.910143
953 4 0.329811 0.418064 0.893607
751 4 0.0535701 0.541487 0.846248
183 2 0.0874109 0.501257 0.882686
236 4 0.24964 0.622503 0.893592
1060 4 0.207231 0.536404 0.892491
98 4 0.289413 0.509207 0.881951
96 2 0.316221 0.51793 0.859465
1042 4 0.0165139 0.699849 0.851595
1041 2 0.996375 0.67456 0.867574
1304 4 0.335178 0.223558 0.981313
767 4 0.193804 0.694079 0.877137
765 2 0.187233 0.658938 0.872411
1439 4 0.16798 0.570972 0.912703
766 4 0.180662 0.623797 0.867686
234 2 0.279893 0.60827 0.907104
235 4 0.310146 0.594037 0.920616
575 4 0.358663 0.64338 0.860133
573 2 0.364183 0.659054 0.892138
574 4 0.369703 0.674728 0.924142
1405 4 0.078985 0.708419 0.873432
1200 2 0.127313 0.694934 0.902905
1202 4 0.0914026 0.69221 0.904747
1404 2 0.0504834 0.730497 0.872641
1354 4 0.1962 0.766924 0.868889
1353 2 0.174727 0.765943 0.897843
195 2 0.0402767 0.824969 0.91643
197 4 0.0744021 0.835932 0.920391
473 4 0.0920009 0.808054 0.895759
471 2 0.121056 0.812925 0.874963
1510 4 0.230604 0.76057 0.86004
1509 2 0.264903 0.752581 0.867797
1511 4 0.299202 0.744593 0.875554
109 4 0.348199 0.819213 0.872957
110 4 0.410653 0.797173 0.901511
108 2 0.379426 0.808193 0.887234
1421 4 0.436397 0.816117 0.917405
1434 2 0.0416512 0.904241 0.902999
1435 4 0.0760395 0.899804 0.893092
190 4 0.166025 0.839517 0.876213
1390 4 0.094892 0.92854 0.881007
472 4 0.150112 0.817796 0.854168
189 2 0.177581 0.847998 0.909302
1389 2 0.117926 0.932444 0.908477
247 4 0.489938 0.232262 0.992229
1180 4 0.418873 0.0133101 0.96278
616 4 0.357536 0.141978 0.930148
615 2 0.343007 0.165504 0.953296
8 3 0.458052 0.117473 0.00306922
214 4 0.234801 0.792334 0.994377
617 4 0.328478 0.18903 0.976444
1179 2 0.434225 0.994515 0.989454
196 4 0.00615179 0.814006 0.912467
1362 2 0.487295 0.165543 0.985907
82 4 0.181376 0.826662 0.962363
146 4 0.0884693 0.333587 0.934902
144 2 0.094528 0.299165 0.926023
1346 4 0.327927 0.335898 0.914799
357 2 0.38501 0.316065 0.9892
426 2 0.104474 0.952567 0.992416
359 4 0.387512 0.280639 0.995458
1516 4 0.196255 0.426582 0.886156
241 4 0.170793 0.421689 0.990507
795 2 0.27744 0.424055 0.967975
796 4 0.306373 0.404762 0.97752
1344 2 0.310443 0.355048 0.939859
1345 4 0.29296 0.374198 0.964919
428 4 0.12341 0.952907 0.961728
790 4 0.0251189 0.407275 0.937897
242 4 0.225292 0.468857 0.993084
1147 4 0.0115119 0.48983 0.98154
240 2 0.198043 0.445273 0.991795
952 4 0.374779 0.463735 0.926679
1332 2 0.108985 0.467167 0.95733
1333 4 0.108905 0.480295 0.990917
1437 2 0.134415 0.573046 0.899685
1438 4 0.10085 0.575121 0.886666
1061 4 0.240639 0.594888 0.866699
1059 2 0.223935 0.565645 0.879595
1201 4 0.163225 0.697658 0.901062
1419 2 0.468017 0.832516 0.911781
1355 4 0.153254 0.764963 0.926797
83 4 0.231322 0.774883 0.957279
81 2 0.206349 0.800772 0.959821
1364 4 0.475354 0.133206 0.975318
1193 4 0.500573 0.208366 0.631577
280 4 0.0197345 0.998997 0.769637
820 4 0.00706988 0.443081 0.706505
621 2 0.00256376 0.1794 0.803457
23 3 0.00664542 0.800304 0.766804
358 4 0.382507 0.35149 0.982942
1203 2 0.166809 0.702685 0.50224
634 4 0.205155 0.920907 0.521865
1155 2 0.434844 0.681685 0.504343
1050 2 0.562581 0.0500249 0.0411604
1051 4 0.587784 0.0275421 0.028521
1052 4 0.537379 0.0725074 0.0538004
695 4 0.612922 0.0164685 0.0617729
1096 4 0.832238 0.98867 0.0685694
1234 4 0.587046 0.137979 0.00168485
1233 2 0.577038 0.164491 0.0239871
1490 4 0.799198 0.146025 0.0943535
168 2 0.910076 0.131924 0.0674775
413 4 0.980834 0.8506 0.126062
1235 4 0.56703 0.191002 0.0462892
1252 4 0.89924 0.171278 0.0300555
170 4 0.882033 0.147107 0.0506419
649 4 0.521022 0.73232 0.2122
624 2 0.694011 0.304796 0.0819836
626 4 0.725113 0.313809 0.0661131
219 2 0.541487 0.673457 0.017194
1083 2 0.95103 0.397848 0.010408
328 4 0.991557 0.14036 0.146842
134 4 0.658259 0.39912 0.0333716
132 2 0.6411 0.403593 0.0647719
945 2 0.737705 0.409202 0.0297032
947 4 0.730513 0.373873 0.0289844
938 4 0.514402 0.466298 0.0334155
946 4 0.744897 0.444531 0.0304219
1085 4 0.940632 0.42795 0.027324
84 2 0.954819 0.482426 0.998151
85 4 0.931379 0.463559 0.0180266
1093 4 0.589029 0.557102 0.0461136
1185 2 0.505922 0.540097 0.3207
895 4 0.617878 0.556666 0.0232805
411 2 0.98256 0.834875 0.0936552
1092 2 0.555839 0.570147 0.0514693
1094 4 0.52265 0.583193 0.0568247
1270 4 0.714862 0.617756 0.0262395
1269 2 0.700425 0.622085 0.0589997
221 4 0.575484 0.683216 0.0242224
1443 2 0.849705 0.700049 0.0704701
1445 4 0.82909 0.670591 0.0677043
365 4 0.764025 0.786288 0.0497589
772 4 0.624087 0.834043 0.0196334
771 2 0.611663 0.867204 0.0264439
773 4 0.599239 0.900365 0.0332547
992 4 0.703779 0.895804 0.0709941
139 4 0.986267 0.910258 0.0102859
693 2 0.644175 0.0278015 0.0757474
694 4 0.675427 0.0391347 0.0897214
1097 4 0.88989 0.0196017 0.09892
1095 2 0.861064 0.0041363 0.0837445
1033 4 0.909301 0.989301 0.105429
1392 2 0.97738 0.0721539 0.125564
1393 4 0.974323 0.0370305 0.117987
1034 4 0.966731 0.0117999 0.142809
1032 2 0.938016 0.000550544 0.124119
985 4 0.548908 0.141337 0.157345
984 2 0.574356 0.118715 0.169218
528 2 0.509991 0.187999 0.143178
986 4 0.599805 0.0960919 0.181092
169 4 0.938119 0.11674 0.0843129
1441 4 0.937539 0.0815645 0.152467
1394 4 0.980437 0.107277 0.133141
529 4 0.526067 0.165607 0.166428
1488 2 0.824304 0.171861 0.0927436
1489 4 0.84941 0.197697 0.091134
1184 4 0.731125 0.34052 0.0908448
1104 2 0.694231 0.308871 0.162273
1105 4 0.677867 0.308607 0.130139
770 4 0.780936 0.272857 0.155557
625 4 0.66291 0.295784 0.0978546
1496 4 0.559963 0.293804 0.00659907
1505 4 0.952567 0.34524 0.176599
1503 2 0.978577 0.330752 0.156252
133 4 0.623942 0.408066 0.0961723
1277 4 0.611717 0.413575 0.12886
1182 2 0.745525 0.352913 0.121496
1183 4 0.759925 0.365307 0.152146
605 4 0.758165 0.403607 0.153529
1275 2 0.608829 0.445481 0.145415
1276 4 0.605941 0.477387 0.161969
603 2 0.781075 0.430166 0.145152
604 4 0.803985 0.456725 0.136776
128 4 0.647462 0.519165 0.14393
126 2 0.621494 0.544053 0.14651
419 4 0.737294 0.523708 0.0922118
418 4 0.706209 0.533392 0.156567
417 2 0.721752 0.52855 0.124389
485 4 0.823142 0.497937 0.145256
483 2 0.854098 0.512549 0.156597
484 4 0.885055 0.527161 0.167937
705 2 0.555162 0.5971 0.170705
706 4 0.570696 0.564798 0.174661
127 4 0.595526 0.568941 0.149089
1271 4 0.685988 0.626414 0.0917601
1120 4 0.711451 0.605993 0.105522
1119 2 0.699935 0.614864 0.138524
1444 4 0.87032 0.729508 0.0732355
562 4 0.867442 0.739996 0.10732
561 2 0.902364 0.742181 0.116039
563 4 0.937287 0.744367 0.124759
363 2 0.770668 0.771654 0.0820409