ITEM: TIMESTEP
215000
ITEM: NUMBER OF ATOMS
1520
ITEM: BOX BOUNDS pp pp pp
-6.9326749999999997e+00 6.9326749999999997e+00
-6.9326749999999997e+00 6.9326749999999997e+00
-6.9326749999999997e+00 6.9326749999999997e+00
ITEM: ATOMS id type xs ys zs
576 2 0.0608533 0.0935115 0.999516
91 4 0.126489 0.0458493 0.0178316
577 4 0.0912809 0.106538 0.0138297
359 4 0.303529 0.974813 0.998152
357 2 0.332585 0.988412 0.0146196
1519 4 0.353895 0.0406757 0.130814
920 4 0.490735 0.340143 0.410453
307 4 0.131687 0.0700791 0.0460481
306 2 0.130761 0.0876932 0.0775015
1322 4 0.0995021 0.177789 0.0477841
1320 2 0.087149 0.165777 0.0161055
537 2 0.142421 0.22453 0.0197516
538 4 0.128736 0.194498 0.0342867
539 4 0.156106 0.25456 0.00521657
1100 4 0.365587 0.21373 0.00588167
1098 2 0.356036 0.217086 0.0404928
1099 4 0.346486 0.220441 0.075104
1078 4 0.485972 0.261621 0.128543
728 4 0.488903 0.604629 0.473657
480 2 0.383003 0.310451 0.0103321
482 4 0.371383 0.33892 0.0291704
926 4 0.0148646 0.943873 0.47968
168 2 0.403325 0.397168 0.031246
170 4 0.425507 0.424662 0.0240069
169 4 0.381143 0.369674 0.0384852
1106 4 0.111979 0.487103 0.0445819
1104 2 0.114849 0.464755 0.016427
1412 4 0.00753514 0.697521 0.43433
1246 4 0.315359 0.463173 0.0624626
1436 4 0.449129 0.444968 0.0077927
1434 2 0.428876 0.471065 0.0222554
1435 4 0.408623 0.497163 0.0367185
784 4 0.0655205 0.593501 0.0754393
960 2 0.170635 0.56625 0.0601237
962 4 0.205519 0.569782 0.0685553
473 4 0.385867 0.53714 0.0387727
1245 2 0.346535 0.481226 0.0640663
471 2 0.411901 0.546352 0.0619631
472 4 0.437934 0.555563 0.0851532
320 4 0.466743 0.564055 0.0963078
783 2 0.0294672 0.592795 0.0751869
1161 2 0.171771 0.634566 0.0149495
1163 4 0.169187 0.656617 0.0433656
1466 4 0.186008 0.668224 0.0719798
221 4 0.335023 0.685436 0.0799583
707 4 0.403958 0.661587 0.0754312
318 2 0.480726 0.589081 0.0744316
1150 4 0.487845 0.598017 0.0209626
517 4 0.00604803 0.823868 0.443777
945 2 0.493473 0.686959 0.201362
717 2 0.112411 0.741184 0.0404546
726 2 0.486285 0.635901 0.455891
677 4 0.0621796 0.717301 0.0161177
718 4 0.0851227 0.718572 0.0471215
1462 4 0.253028 0.739423 0.0449024
1463 4 0.306791 0.692431 0.0550521
1461 2 0.279909 0.715927 0.0499771
705 2 0.394426 0.691625 0.0579039
706 4 0.384895 0.721663 0.0403756
1058 4 0.474841 0.744918 0.0480494
46 1 0.158272 0.798787 0.0201011
49 3 0.141525 0.826582 0.0119242
47 3 0.151869 0.791338 0.0517894
48 3 0.148308 0.773345 0.00077964
719 4 0.139699 0.763797 0.0337873
50 3 0.190547 0.803665 0.0164434
352 4 0.291531 0.829193 0.0533001
351 2 0.27002 0.801475 0.0449715
353 4 0.248509 0.773757 0.0366428
461 4 0.491873 0.312054 0.241689
1469 4 0.451203 0.74212 0.0219469
1224 2 0.0712235 0.798705 0.0761539
1225 4 0.066929 0.769251 0.0965118
130 4 0.017964 0.174995 0.18996
890 4 0.0857756 0.85377 0.0198386
888 2 0.118894 0.866664 0.025948
889 4 0.152013 0.879557 0.0320576
1226 4 0.0755182 0.828159 0.0557957
328 4 0.191272 0.880558 0.0394783
327 2 0.222131 0.868373 0.0253478
329 4 0.25299 0.856188 0.0112173
508 4 0.323657 0.843598 0.0584123
507 2 0.338763 0.875879 0.0639051
1364 4 0.453809 0.315265 0.239036
977 4 0.252034 0.0155546 0.0870999
976 4 0.29255 0.99682 0.0304502
975 2 0.272292 0.00618743 0.0587753
358 4 0.361641 0.0020119 0.0310875
1306 4 0.409406 0.95916 0.997143
1305 2 0.429222 0.941971 0.0218876
1307 4 0.449038 0.924783 0.046632
743 4 0.319254 0.00276693 0.163013
1518 2 0.355966 0.0060583 0.120927
1261 4 0.162793 0.687183 0.492985
1138 4 0.345062 0.0895743 0.0985786
851 4 0.348668 0.756045 0.482919
1244 4 0.0825258 0.202657 0.0676838
308 4 0.129835 0.105307 0.108955
1139 4 0.386456 0.130181 0.141467
1264 4 0.40502 0.165575 0.142216
1205 4 0.115408 0.782691 0.441698
1137 2 0.365759 0.109877 0.120023
1242 2 0.0466921 0.205661 0.0649699
131 4 0.0654997 0.216036 0.154499
1243 4 0.0108591 0.208665 0.0622553
5 3 0.108645 0.265111 0.171743
1123 4 0.320687 0.195498 0.0840477
1122 2 0.300068 0.213731 0.107346
1124 4 0.279449 0.231965 0.130644
1263 2 0.401979 0.192028 0.117896
1265 4 0.398938 0.218481 0.0935778
1077 2 0.45165 0.253172 0.121399
2 3 0.135983 0.253276 0.126911
1133 4 0.171446 0.343981 0.144205
1131 2 0.146116 0.336949 0.168889
1132 4 0.120785 0.329917 0.193574
770 4 0.312761 0.241951 0.143362
768 2 0.295046 0.270318 0.156849
985 4 0.41851 0.330462 0.172531
1079 4 0.417327 0.244723 0.114256
986 4 0.397994 0.276095 0.129813
984 2 0.408252 0.303279 0.151173
491 4 0.191109 0.0275921 0.407782
758 4 0.265191 0.371652 0.201202
230 4 0.0131149 0.451155 0.113055
133 4 0.181438 0.426826 0.125748
134 4 0.179959 0.479469 0.175025
132 2 0.180699 0.453148 0.150386
337 4 0.372538 0.431708 0.177615
961 4 0.135752 0.562717 0.0516921
38 3 0.181475 0.585328 0.112083
36 1 0.192143 0.57094 0.140351
37 3 0.219514 0.553381 0.133782
1247 4 0.377711 0.49928 0.0656694
1464 2 0.196668 0.637821 0.0881808
1465 4 0.207328 0.607419 0.104381
940 4 0.219667 0.615087 0.135677
220 4 0.291976 0.629787 0.0958258
219 2 0.3135 0.657611 0.0878923
667 4 0.384161 0.572406 0.0957314
666 2 0.384411 0.6084 0.093546
668 4 0.38466 0.644392 0.0913615
1052 4 0.998626 0.699813 0.149681
1145 4 0.14935 0.724833 0.252126
657 2 0.398057 0.697204 0.138888
659 4 0.42144 0.700116 0.111591
52 4 0.478286 0.826926 0.0694349
799 4 0.0746966 0.933171 0.127951
509 4 0.35387 0.90816 0.0693978
227 4 0.427043 0.93376 0.0773153
800 4 0.0739839 0.922513 0.0566242
798 2 0.0743404 0.927842 0.0922876
1130 4 0.208955 0.932979 0.117364
1128 2 0.233582 0.927934 0.143219
1129 4 0.258208 0.92289 0.169073
253 4 0.28892 0.928329 0.182858
1520 4 0.358037 0.971441 0.11104
226 4 0.440813 0.917391 0.146193
225 2 0.433928 0.925576 0.111754
1008 2 0.00301874 0.0171684 0.192051
218 4 0.0148407 0.412199 0.177587
741 2 0.292478 0.0259637 0.169749
742 4 0.265702 0.0491597 0.176484
428 4 0.371738 0.0698696 0.216435
175 4 0.429892 0.0103843 0.266525
174 2 0.457085 0.0101317 0.242841
176 4 0.484278 0.00987903 0.219157
786 2 0.251232 0.122459 0.223485
787 4 0.22034 0.140496 0.218927
788 4 0.282124 0.104423 0.228043
1514 4 0.417737 0.148768 0.176811
129 2 0.0417326 0.195516 0.172229
4 3 0.0893959 0.227652 0.137462
3 3 0.0893182 0.280638 0.123429
1 1 0.105745 0.25673 0.140117
1241 4 0.282204 0.182844 0.23289
1239 2 0.311311 0.200824 0.244286
1512 2 0.407445 0.177126 0.196567
1159 4 0.434003 0.213145 0.219028
1513 4 0.397152 0.205484 0.216323
1158 2 0.459406 0.236677 0.229096
626 4 0.0890599 0.311582 0.197018
624 2 0.0691724 0.30436 0.22622
625 4 0.0492851 0.297138 0.255422
1120 4 0.0730282 0.269031 0.297616
769 4 0.277331 0.298685 0.170336
1363 4 0.42447 0.358634 0.189437
1160 4 0.484808 0.26021 0.239163
1362 2 0.43914 0.33695 0.214236
182 4 0.256666 0.33959 0.187716
180 2 0.246389 0.322065 0.217509
756 2 0.295792 0.388193 0.191692
757 4 0.326392 0.404733 0.182182
947 4 0.481671 0.68628 0.167294
216 2 0.00347726 0.445935 0.183342
336 2 0.363608 0.466445 0.173872
734 4 0.389176 0.429148 0.250086
39 3 0.168639 0.550295 0.152237
1155 2 0.278629 0.497542 0.231955
1157 4 0.30001 0.504559 0.203776
338 4 0.354678 0.501181 0.170129
430 4 0.365814 0.531427 0.182549
429 2 0.388992 0.555011 0.196935
939 2 0.244211 0.631494 0.156384
40 3 0.199166 0.593972 0.16269
941 4 0.268754 0.647901 0.177092
431 4 0.41217 0.578596 0.211321
1312 4 0.393415 0.613153 0.207716
1311 2 0.373682 0.639448 0.192894
177 2 0.0507253 0.691611 0.182457
178 4 0.0146661 0.691232 0.182489
1143 2 0.135823 0.705765 0.224669
179 4 0.0867848 0.69199 0.182424
1144 4 0.122297 0.686697 0.197213
1185 2 0.300052 0.722865 0.231997
1186 4 0.279853 0.731555 0.260579
1187 4 0.320251 0.714176 0.203415
1232 4 0.431713 0.677923 0.261605
658 4 0.374673 0.69429 0.166185
158 4 0.477703 0.66867 0.247667
1313 4 0.35395 0.665742 0.178072
1444 4 0.496682 0.858297 0.192606
584 4 0.229589 0.944883 0.468139
186 2 0.205663 0.0237127 0.217154
187 4 0.173334 0.0347796 0.205633
252 2 0.306499 0.951298 0.161321
254 4 0.324079 0.974267 0.139785
426 2 0.37172 0.0380655 0.233433
427 4 0.371702 0.00626179 0.250431
72 2 0.217656 0.0572682 0.317894
73 4 0.22615 0.0825965 0.342116
74 4 0.209162 0.0319398 0.293672
1047 2 0.126251 0.862121 0.487287
572 4 0.0904839 0.184982 0.33823
631 4 0.113441 0.159149 0.326753
1356 2 0.338001 0.0982758 0.268566
1358 4 0.311765 0.115487 0.250792
1357 4 0.364236 0.081064 0.286339
632 4 0.159351 0.188589 0.279559
630 2 0.136396 0.173869 0.303156
1240 4 0.340419 0.218804 0.255682
395 4 0.359473 0.225806 0.284846
393 2 0.355315 0.261385 0.289006
1082 4 0.35551 0.196262 0.306523
1080 2 0.388017 0.194528 0.322038
1081 4 0.420524 0.192795 0.337552
720 2 0.495023 0.151958 0.495695
1119 2 0.106658 0.256296 0.300315
1121 4 0.140288 0.243562 0.303015
1285 4 0.177784 0.258625 0.313749
1286 4 0.214064 0.311477 0.280715
1284 2 0.195928 0.285051 0.29723
1397 4 0.350506 0.332506 0.312952
54 2 0.285097 0.315862 0.295368
55 4 0.316917 0.309612 0.311087
394 4 0.351168 0.296951 0.293151
1395 2 0.367486 0.345057 0.283734
303 2 0.0162382 0.344461 0.321376
305 4 0.0446133 0.36576 0.327829
137 4 0.0630417 0.403927 0.321479
135 2 0.0664743 0.420125 0.289444
181 4 0.236113 0.304536 0.247294
56 4 0.253257 0.322116 0.279652
1396 4 0.384475 0.357631 0.254517
96 2 0.411219 0.990881 0.425455
608 4 0.186746 0.433469 0.19634
606 2 0.176431 0.445237 0.228829
136 4 0.069907 0.436322 0.257408
607 4 0.166117 0.457006 0.261319
1156 4 0.257249 0.490526 0.260134
732 2 0.390284 0.456974 0.272997
733 4 0.391392 0.484799 0.295908
190 4 0.412198 0.486723 0.323997
1325 4 0.0210689 0.525435 0.307834
245 4 0.155341 0.532604 0.328879
1328 4 0.148563 0.498324 0.315991
243 2 0.185153 0.551714 0.335694
244 4 0.214965 0.570824 0.34251
859 4 0.247605 0.553763 0.341017
858 2 0.280679 0.561849 0.352896
860 4 0.313754 0.569935 0.364774
564 2 0.469359 0.604576 0.330751
156 2 0.461151 0.638255 0.257735
566 4 0.44725 0.600482 0.302557
157 4 0.444598 0.607841 0.267802
1230 2 0.407365 0.688975 0.2858
1231 4 0.383017 0.700027 0.309996
325 4 0.352073 0.701824 0.291796
127 4 0.276032 0.763095 0.278236
126 2 0.264239 0.774652 0.310294
128 4 0.252445 0.786209 0.342353
1195 4 0.196941 0.861365 0.299731
1194 2 0.227494 0.85463 0.317663
251 4 0.436882 0.809476 0.347391
1222 4 0.187443 0.940808 0.272197
188 4 0.237993 0.0126461 0.228675
1221 2 0.202799 0.908472 0.267837
490 4 0.157583 0.968977 0.433119
315 2 0.321038 0.0649423 0.434688
317 4 0.289437 0.0514182 0.423786
316 4 0.35264 0.0784666 0.44559
1049 4 0.123781 0.898046 0.48535
172 4 0.498504 0.980158 0.325074
479 4 0.350906 0.0956916 0.482657
1354 4 0.0177649 0.149562 0.341392
1353 2 0.0245081 0.140704 0.375692
522 2 0.28473 0.124073 0.342416
524 4 0.270901 0.132904 0.310305
523 4 0.29856 0.115241 0.374528
901 4 0.327029 0.125063 0.401318
570 2 0.0958084 0.194224 0.372677
571 4 0.101133 0.203466 0.407125
900 2 0.309517 0.153659 0.414585
370 4 0.34844 0.297617 0.333838
369 2 0.349728 0.317331 0.363996
969 2 0.0347614 0.584706 0.482138
918 2 0.479015 0.345701 0.444101
371 4 0.351024 0.337032 0.394172
163 4 0.372044 0.316276 0.420098
919 4 0.467294 0.351258 0.477748
1327 4 0.181804 0.445115 0.351566
1326 2 0.165183 0.471719 0.333779
189 2 0.433056 0.463072 0.341491
1280 4 0.322602 0.539265 0.350764
1278 2 0.354601 0.555788 0.348904
1279 4 0.3866 0.57231 0.347043
191 4 0.453914 0.439422 0.358984
661 4 0.37618 0.60345 0.359745
660 2 0.396677 0.626985 0.377811
565 4 0.491468 0.608669 0.358944
533 4 0.180991 0.756751 0.383264
958 4 0.301614 0.705922 0.362569
324 2 0.339339 0.691942 0.324054
326 4 0.326605 0.682059 0.356312
662 4 0.417174 0.650521 0.395877
1315 4 0.43902 0.680529 0.404538
532 4 0.121792 0.788309 0.356784
531 2 0.151392 0.77253 0.370024
1209 2 0.236737 0.751607 0.413907
1211 4 0.216445 0.75478 0.384267
1210 4 0.25703 0.748434 0.443548
1154 4 0.0446327 0.903735 0.411257
1152 2 0.0611836 0.924044 0.386478
1196 4 0.258047 0.847895 0.335595
105 2 0.442864 0.911171 0.379532
106 4 0.456568 0.895895 0.349879
250 4 0.445527 0.875909 0.320679
249 2 0.441204 0.842693 0.334035
1153 4 0.0777346 0.944354 0.3617
1223 4 0.218155 0.876137 0.263478
489 2 0.174346 0.998285 0.420451
107 4 0.429161 0.926448 0.409184
97 4 0.436875 0.966906 0.417249
925 4 0.0051117 0.00569958 0.443848
155 4 0.00780436 0.0398183 0.431056
153 2 0.0257033 0.070565 0.425167
18 3 0.25239 0.0013003 0.429031
16 1 0.253335 0.0223651 0.455017
17 3 0.222778 0.0252332 0.467614
98 4 0.385562 0.0148557 0.433662
154 4 0.0436026 0.101311 0.41928
1355 4 0.0312511 0.131846 0.409991
924 2 0.00998823 0.974786 0.461764
477 2 0.380231 0.115893 0.488347
478 4 0.409555 0.136094 0.494038
272 4 0.2864 0.217963 0.486323
1126 4 0.0118078 0.908839 0.486114
553 4 0.00958145 0.109907 0.194255
902 4 0.292004 0.182254 0.427853
1125 2 0.0414402 0.891495 0.475091
1011 2 0.0160419 0.274267 0.485935
1127 4 0.0710727 0.87415 0.464068
20 3 0.273527 0.0107175 0.478157
164 4 0.416083 0.319862 0.477101
162 2 0.394063 0.318069 0.448599
211 4 0.298556 0.321787 0.478671
210 2 0.270462 0.321183 0.50127
971 4 0.0449333 0.619256 0.480331
1009 4 0.0135605 0.00965798 0.158392
882 2 0.134834 0.59863 0.488214
884 4 0.106966 0.613872 0.471141
1410 2 0.0424361 0.705888 0.43784
1411 4 0.077337 0.714256 0.44135
512 4 0.169894 0.699452 0.464488
510 2 0.15722 0.667918 0.45243
511 4 0.144546 0.636384 0.440371
957 2 0.30625 0.711748 0.397853
959 4 0.310886 0.717576 0.433137
850 4 0.327374 0.693579 0.453827
849 2 0.338021 0.724812 0.468373
727 4 0.483667 0.667173 0.438124
1316 4 0.391397 0.726413 0.433321
1314 2 0.415209 0.703471 0.41893
1204 4 0.179411 0.809634 0.461174
1203 2 0.14741 0.796163 0.451436
700 4 0.248403 0.783639 0.45696
699 2 0.251056 0.794801 0.491147
19 3 0.263742 0.0525209 0.444907
319 4 0.49471 0.614107 0.0525556
505 4 0.493935 0.843647 0.226541
992 4 0.0064975 0.321977 0.439091
999 2 0.449692 0.285963 0.493728
1001 4 0.413677 0.28694 0.492171
970 4 0.0245897 0.550157 0.483945
582 2 0.200255 0.937285 0.48769
893 4 0.42556 0.0457549 0.0193202
184 4 0.341132 0.768954 0.00673655
1108 4 0.171509 0.0293761 0.540094
1109 4 0.107222 0.0548387 0.51959
1107 2 0.139366 0.0421073 0.529842
973 4 0.466203 0.057047 0.584156
1389 2 0.327644 0.109435 0.548069
1390 4 0.316946 0.128098 0.577012
379 4 0.296492 0.151309 0.598274
763 4 0.484533 0.766849 0.643695
745 4 0.107352 0.207789 0.521722
744 2 0.0729704 0.216643 0.528044
883 4 0.162701 0.583388 0.505287
1510 4 0.137114 0.187578 0.504986
1509 2 0.159998 0.199053 0.530384
1511 4 0.182881 0.210528 0.555783
1141 4 0.00903048 0.0974166 0.76831
722 4 0.480723 0.172404 0.521731
746 4 0.0385889 0.225496 0.534364
1088 4 0.0104648 0.308534 0.594741
779 4 0.494557 0.0769797 0.82059
1000 4 0.485702 0.284987 0.495284
7 3 0.00774542 0.65761 0.69257
1293 2 0.0304646 0.397658 0.536044
591 2 0.371156 0.395315 0.564392
592 4 0.33615 0.396173 0.573011
1295 4 0.0505473 0.398542 0.506106
1414 4 0.249685 0.482645 0.544816
503 4 0.495614 0.479252 0.525559
672 2 0.497369 0.397165 0.650098
1012 4 0.0305603 0.257487 0.514362
1413 2 0.241292 0.516738 0.536594
1415 4 0.232899 0.550832 0.528372
502 4 0.466835 0.542836 0.543736
501 2 0.481224 0.511044 0.534648
271 4 0.224687 0.215208 0.523546
1262 4 0.169457 0.694446 0.564429
437 4 0.443584 0.679226 0.525431
1292 4 0.479344 0.677926 0.520546
1201 4 0.480743 0.438656 0.748192
1260 2 0.166125 0.690815 0.528706
435 2 0.42405 0.706773 0.53808
436 4 0.404516 0.73432 0.550729
594 2 0.0254898 0.52126 0.91607
66 2 0.289187 0.787456 0.556085
67 4 0.261007 0.804464 0.570815
701 4 0.25371 0.805963 0.525335
10 3 0.0218052 0.685973 0.649036
737 4 0.457362 0.810984 0.581303
519 2 0.106104 0.95398 0.505246
520 4 0.083836 0.98229 0.503481
284 4 0.146355 0.921453 0.541841
583 4 0.170921 0.929687 0.50724
1176 2 0.502178 0.0407602 0.688513
282 2 0.171081 0.919462 0.568015
362 4 0.488128 0.856788 0.721324
1048 4 0.128721 0.826196 0.489224
987 2 0.474564 0.950477 0.565001
1252 4 0.400221 0.0188943 0.655163
1253 4 0.434344 0.0460055 0.597698
1251 2 0.417283 0.0324499 0.62643
378 2 0.298452 0.179251 0.620985
586 4 0.398955 0.160237 0.699033
380 4 0.300413 0.207193 0.643696
854 4 0.323965 0.228983 0.620737
1451 4 0.247531 0.25511 0.600023
852 2 0.335338 0.236179 0.654193
101 4 0.0408506 0.298653 0.577384
99 2 0.0757402 0.30223 0.568997
100 4 0.11063 0.305807 0.56061
1449 2 0.271679 0.271118 0.578551
1450 4 0.295826 0.287126 0.557079
593 4 0.406161 0.394458 0.555772
899 4 0.392627 0.408496 0.677075
617 4 0.0412952 0.590196 0.628555
615 2 0.00545452 0.593286 0.631063
140 4 0.442829 0.526354 0.591953
138 2 0.430631 0.512081 0.622741
139 4 0.418433 0.497808 0.653528
1391 4 0.338341 0.0907723 0.519126
703 4 0.071309 0.605378 0.639727
1055 4 0.177933 0.679841 0.597503
409 4 0.424915 0.656011 0.635513
988 4 0.439478 0.942207 0.563988
1053 2 0.205253 0.660032 0.610216
1054 4 0.232574 0.640224 0.622929
410 4 0.362087 0.689474 0.647106
408 2 0.393501 0.672742 0.64131
764 4 0.475264 0.741855 0.71071
637 4 0.0706602 0.74249 0.632997
636 2 0.0358309 0.750761 0.637348
638 4 0.00100149 0.759031 0.641699
789 2 0.225426 0.808653 0.647817
790 4 0.243193 0.780941 0.633094
68 4 0.317367 0.770448 0.541353
643 4 0.369095 0.815473 0.660533
206 4 0.377654 0.842485 0.681708
642 2 0.391214 0.789422 0.672043
735 2 0.484199 0.787955 0.588361
185 4 0.319465 0.824698 0.966428
1294 4 0.0103819 0.396773 0.565982
791 4 0.207659 0.836365 0.662539
562 4 0.276874 0.88722 0.656274
563 4 0.2591 0.855067 0.59421
561 2 0.267987 0.871143 0.625243
1083 2 0.0130805 0.922987 0.678588
283 4 0.195807 0.91747 0.594189
1460 4 0.220461 0.945813 0.582492
1458 2 0.227044 0.976664 0.599965
1459 4 0.233627 0.00751387 0.617439
296 4 0.445139 0.942425 0.681128
621 2 0.0863339 0.0697535 0.7175
623 4 0.108481 0.0494461 0.697562
58 4 0.0897935 0.0195102 0.697764
232 4 0.266807 0.0778531 0.752428
231 2 0.290634 0.056417 0.768956
233 4 0.31446 0.034981 0.785485
1432 4 0.397594 8.01031e-05 0.685862
1433 4 0.445115 0.0219851 0.735496
1431 2 0.421355 0.0110325 0.710679
622 4 0.0641872 0.0900608 0.737439
585 2 0.408409 0.134509 0.6756
587 4 0.417863 0.108781 0.652167
548 4 0.38106 0.233008 0.682927
546 2 0.399484 0.23274 0.713926
690 2 0.491364 0.212619 0.706009
547 4 0.417907 0.232472 0.744924
974 4 0.486829 0.0937807 0.525616
692 4 0.468159 0.186482 0.697135
1086 2 0.000263515 0.336747 0.574732
815 4 0.0247604 0.278897 0.719712
121 4 0.0458729 0.293515 0.694746
1115 4 0.30111 0.305208 0.707799
853 4 0.346711 0.243373 0.687648
122 4 0.0205611 0.35888 0.711729
120 2 0.0332171 0.326198 0.703237
817 4 0.0127846 0.392489 0.721929
1113 2 0.311407 0.339304 0.71344
898 4 0.35542 0.360707 0.716234
897 2 0.374024 0.384601 0.696654
1114 4 0.321704 0.3734 0.71908
674 4 0.473732 0.39905 0.677268
995 4 0.348615 0.461016 0.747876
1200 2 0.461694 0.421166 0.723059
1202 4 0.442645 0.403677 0.697926
1018 4 0.234547 0.536743 0.672904
904 4 0.219237 0.566983 0.739651
1017 2 0.249703 0.559706 0.696216
1019 4 0.26486 0.582668 0.719527
830 4 0.456234 0.524764 0.713445
702 2 0.0726567 0.635163 0.660011
1360 4 0.0865797 0.635164 0.746081
704 4 0.0740043 0.664948 0.680295
1481 4 0.320963 0.675542 0.714338
1042 4 0.294726 0.576566 0.702166
1041 2 0.325421 0.595229 0.70531
1043 4 0.356117 0.613892 0.708453
972 2 0.476516 0.0754138 0.554886
9 3 0.997882 0.710887 0.690939
419 4 0.0786948 0.695557 0.700127
417 2 0.0937834 0.700915 0.732438
418 4 0.108872 0.706272 0.76475
1479 2 0.298537 0.698695 0.698169
1480 4 0.276111 0.721848 0.682
762 2 0.479899 0.754352 0.677203
891 2 0.448107 0.0535983 0.992292
1094 4 0.00202875 0.953679 0.989309
212 4 0.242367 0.320579 0.523869
644 4 0.413334 0.763371 0.683554
711 2 0.417959 0.751332 0.734469
713 4 0.432121 0.738981 0.703691
832 4 0.202523 0.923837 0.717093
831 2 0.230352 0.918384 0.694817
204 2 0.371911 0.877647 0.676135
205 4 0.366168 0.912809 0.670563
294 2 0.466835 0.915073 0.690155
295 4 0.488532 0.88772 0.699182
1084 4 0.0287602 0.930096 0.710274
57 2 0.0705003 0.989469 0.702832
59 4 0.0512069 0.959428 0.707901
833 4 0.258181 0.912932 0.672541
89 4 0.373657 0.943006 0.687761
87 2 0.37012 0.948447 0.723233
88 4 0.366582 0.953888 0.758705
1329 2 0.397616 0.0379366 0.837979
1331 4 0.369283 0.0602424 0.83763
152 4 0.459984 0.00358712 0.836618
193 4 0.0838639 0.22483 0.834817
192 2 0.0513952 0.210568 0.841359
86 4 0.230147 0.0957166 0.791828
84 2 0.225818 0.121264 0.816908
85 4 0.221489 0.146811 0.841988
166 4 0.0550887 0.284024 0.834263
194 4 0.0189263 0.196306 0.8479
574 4 0.495351 0.24461 0.846146
647 4 0.236581 0.348108 0.775193
223 4 0.408715 0.355215 0.858775
1421 4 0.414924 0.310733 0.833562
1419 2 0.440049 0.284932 0.831714
1420 4 0.465175 0.259131 0.829865
454 4 0.156752 0.438012 0.868223
455 4 0.198341 0.396822 0.826086
453 2 0.177546 0.417417 0.847155
645 2 0.206655 0.3598 0.791568
646 4 0.176729 0.371492 0.807943
450 2 0.495799 0.36273 0.838955
1147 4 0.41409 0.272494 0.959209
345 2 0.0295781 0.497086 0.83545
527 4 0.0261686 0.444501 0.787513
347 4 0.0358872 0.526508 0.855323
1345 4 0.135132 0.454045 0.843449
994 4 0.402139 0.509354 0.747419
993 2 0.375377 0.485185 0.747647
346 4 0.0232691 0.467663 0.815578
1361 4 0.0418042 0.580946 0.762118
903 2 0.207891 0.553057 0.77092
905 4 0.196547 0.539131 0.80219
15 3 0.18826 0.543718 0.838688
1473 2 0.308451 0.561254 0.799133
1475 4 0.340378 0.574294 0.788597
828 2 0.48741 0.524009 0.731553
1359 2 0.0641919 0.608055 0.7541
712 4 0.403796 0.763684 0.765247
1503 2 0.0792702 0.837412 0.829153
1332 2 0.153625 0.850061 0.809427
1334 4 0.119715 0.861654 0.805408
1504 4 0.115314 0.837071 0.830222
1501 4 0.425428 0.909098 0.808099
1333 4 0.187534 0.838468 0.813445
1502 4 0.361681 0.927937 0.780116
1500 2 0.393555 0.918518 0.794107
151 4 0.449472 0.936448 0.812463
150 2 0.454728 0.970017 0.82454
1033 4 0.234989 0.995499 0.904212
348 2 0.295106 0.0660327 0.845606
349 4 0.331035 0.0635793 0.843727
1330 4 0.425949 0.0156311 0.838328
778 4 0.488771 0.0056319 0.81178
777 2 0.491664 0.0413059 0.816185
350 4 0.259178 0.0684861 0.847485
413 4 0.208214 0.260632 0.921342
222 2 0.378397 0.350356 0.877686
729 2 0.0199916 0.379275 0.922755
731 4 0.0419987 0.396351 0.945658
224 4 0.348079 0.345497 0.896596
214 4 0.352714 0.398404 0.933108
452 4 0.473329 0.389159 0.829108
1346 4 0.140916 0.511445 0.886733
1344 2 0.138024 0.482745 0.865091
836 4 0.424848 0.374716 0.835501
834 2 0.430775 0.407102 0.850213
835 4 0.436702 0.439488 0.864925
1277 4 0.126291 0.489861 0.910731
377 4 0.226226 0.569515 0.903241
14 3 0.232491 0.554761 0.868191
11 1 0.219423 0.535103 0.84447
13 3 0.220818 0.503088 0.854114
12 3 0.237099 0.538696 0.816624
1474 4 0.276523 0.548213 0.809669
124 4 0.205326 0.641516 0.86977
123 2 0.240015 0.641156 0.859924
125 4 0.274704 0.640796 0.850079
407 4 0.0809149 0.657844 0.880053
1505 4 0.0432264 0.837753 0.828085
1039 4 0.209362 0.85273 0.868786
1038 2 0.240343 0.834567 0.872055
1040 4 0.271324 0.816405 0.875324
90 2 0.151677 0.0485926 0.992172
92 4 0.176865 0.051336 0.966512
1032 2 0.215958 0.0259814 0.907223
1034 4 0.196926 0.0564639 0.910234
1427 4 0.186586 0.0746639 0.943471
1220 4 0.484827 0.0386915 0.94314
892 4 0.470653 0.0614419 0.965263
521 4 0.128373 0.925671 0.50701
183 2 0.330298 0.796826 0.986582
1425 2 0.202298 0.104861 0.93157
1426 4 0.218011 0.135058 0.919668
664 4 0.0937589 0.188281 0.973143
1321 4 0.0747957 0.153766 0.984427
663 2 0.0913349 0.219718 0.955642
665 4 0.088911 0.251155 0.938142
411 2 0.196723 0.251041 0.95415
412 4 0.185231 0.24145 0.986958
1184 4 0.0427631 0.287923 0.883391
1182 2 0.0547689 0.281278 0.916739
1183 4 0.0667743 0.274633 0.950088
1339 4 0.158441 0.335569 0.89308
1338 2 0.171385 0.329235 0.926137
1148 4 0.466 0.3217 0.949949
1146 2 0.440045 0.297097 0.954579
730 4 0.997985 0.3622 0.899853
1340 4 0.184328 0.322902 0.959195
1016 4 0.200377 0.350982 0.945851
1014 2 0.230468 0.366058 0.9588
215 4 0.287297 0.40479 0.962796
213 2 0.320006 0.401597 0.947952
1276 4 0.109852 0.476179 0.979609
1275 2 0.118072 0.48302 0.945169
1281 2 0.211964 0.475526 0.98133
1015 4 0.260559 0.381134 0.971749
1283 4 0.19316 0.444829 0.983445
803 4 0.360881 0.43432 0.932105
801 2 0.392566 0.44226 0.916827
802 4 0.42425 0.450199 0.901547
596 4 0.0375739 0.491143 0.931797
375 2 0.2372 0.552377 0.933011
1282 4 0.230768 0.506224 0.979216
376 4 0.248174 0.535239 0.962782
1349 4 0.354881 0.54333 0.982974
1347 2 0.371108 0.575513 0.981841
1149 2 0.476108 0.59993 0.986919
1348 4 0.387335 0.607697 0.980708
1151 4 0.46437 0.601842 0.952875
160 4 0.463469 0.63619 0.942992
406 4 0.0417769 0.704301 0.918933
405 2 0.0613459 0.681072 0.899493
159 2 0.456079 0.67106 0.937525
161 4 0.448688 0.70593 0.932057
1468 4 0.432845 0.738156 0.952313
1467 2 0.442024 0.740138 0.98713
331 4 0.173891 0.826921 0.990304
1417 4 0.430451 0.775921 0.95813
1416 2 0.435838 0.805937 0.938884
199 4 0.045709 0.892179 0.944784
1365 2 0.088841 0.860468 0.926509
1366 4 0.0530006 0.861581 0.922682
198 2 0.0205444 0.903674 0.967916
330 2 0.165375 0.849851 0.963805
332 4 0.156859 0.872779 0.937307
1367 4 0.124681 0.859355 0.930336
1418 4 0.441226 0.835953 0.919638
1142 4 0.0448295 0.06504 0.8219
525 2 0.0352536 0.4217 0.761093
526 4 0.0443388 0.3989 0.734674
595 4 0.0134055 0.551378 0.900344
1218 2 0.492683 0.0582205 0.913861
1177 4 0.466981 0.0367482 0.681763
1140 2 0.02693 0.0812282 0.795105
165 2 0.0203286 0.286125 0.824897
676 4 0.0468477 0.689601 0.951315
1162 4 0.174354 0.612514 0.986533
1105 4 0.11772 0.442407 0.988271
675 2 0.0545134 0.703451 0.983716
578 4 0.0304257 0.080485 0.985202
481 4 0.394623 0.281981 0.991493
270 2 0.255543 0.216585 0.504934
1401 2 0.602158 0.0208225 0.0406534
1403 4 0.630848 0.0314449 0.0215633
368 4 0.712532 0.00986739 0.0923933
367 4 0.704324 0.0811617 0.0852254
366 2 0.708428 0.0455146 0.0888093
80 4 0.930844 0.0415081 0.0278106
173 4 0.51954 0.00672681 0.388739
966 2 0.952503 0.997303 0.0814791
968 4 0.981789 0.0161438 0.0721124
108 2 0.765845 0.142869 0.0497513
110 4 0.733011 0.137688 0.063732
78 2 0.921467 0.0681224 0.0502639
79 4 0.91209 0.094737 0.0727173
781 4 0.560354 0.176239 0.0742308
780 2 0.551929 0.207769 0.0588912
782 4 0.543505 0.239299 0.0435515
109 4 0.798679 0.148051 0.03577
447 2 0.52134 0.753441 0.407171
922 4 0.78956 0.157351 9.07819e-05
1022 4 0.951225 0.219517 0.0268287
1020 2 0.934867 0.188412 0.0349102
448 4 0.521 0.728345 0.381277
950 4 0.616504 0.33342 0.0911903
948 2 0.590434 0.350957 0.0734919
1255 4 0.849486 0.298821 0.0362253
1254 2 0.848968 0.267654 0.0543569
1487 4 0.982223 0.169121 0.213235
949 4 0.564364 0.368493 0.0557936
229 4 0.949278 0.448653 0.0795854
29 3 0.725386 0.568369 0.0346001
28 3 0.766984 0.535062 0.0217635
26 1 0.738281 0.537769 0.0387558
30 3 0.74357 0.532076 0.0706686
1228 4 0.549607 0.345048 0.0975066
1021 4 0.918509 0.157308 0.0429918
635 4 0.749704 0.66787 0.0706948
1388 4 0.741718 0.631651 0.066172
1386 2 0.755376 0.623366 0.0338423
1406 4 0.885826 0.563874 0.0664315
785 4 0.993414 0.59209 0.0749346
1057 4 0.538004 0.737484 0.0820604
1056 2 0.506422 0.741201 0.0650548
146 4 0.555003 0.722807 0.111126
541 4 0.746888 0.767745 0.0432836
633 2 0.756468 0.701608 0.0599058
634 4 0.763233 0.735346 0.0491167
981 2 0.593691 0.794101 0.0736714
982 4 0.615622 0.779031 0.0493339
540 2 0.711237 0.762704 0.0452741
542 4 0.675585 0.757663 0.047265
217 4 0.992114 0.479672 0.189098
879 2 0.878816 0.830437 0.0278101
880 4 0.911564 0.815343 0.0274774
771 2 0.953014 0.782883 0.0668161
772 4 0.9421 0.807979 0.0433331
1385 4 0.592417 0.937911 0.0895957
881 4 0.846068 0.845531 0.0281425
1402 4 0.573468 0.0102003 0.059743
1384 4 0.577954 0.951827 0.0203222
1383 2 0.585186 0.944869 0.0549588
420 2 0.68092 0.970788 0.0466823
421 4 0.682012 0.966477 0.0108964
1093 4 0.97667 0.000350485 0.0380984
1092 2 0.989349 0.977015 0.0137037
415 4 0.679836 0.0231682 0.173639
967 4 0.923216 0.978462 0.0908454
552 2 0.990482 0.0972981 0.166387
554 4 0.971383 0.0846893 0.138519
930 2 0.911326 0.130559 0.120192
931 4 0.923119 0.135404 0.153925
932 4 0.899534 0.125715 0.0864599
1496 4 0.618447 0.258912 0.15194
1494 2 0.639703 0.234223 0.167401
1175 4 0.730786 0.182563 0.158063
1173 2 0.7608 0.197106 0.144347
1227 2 0.53698 0.330875 0.128167
1229 4 0.524353 0.316701 0.158828
1174 4 0.790813 0.211649 0.130631
1256 4 0.84845 0.236487 0.0724883
1096 4 0.897025 0.303644 0.198013
823 4 0.903891 0.319842 0.166711
822 2 0.900168 0.348645 0.188087
824 4 0.896445 0.377448 0.209463
1375 4 0.863989 0.457807 0.199115
228 2 0.981197 0.449904 0.0963201
267 2 0.661057 0.533497 0.181221
269 4 0.628082 0.519794 0.186248
313 4 0.72307 0.559796 0.159201
268 4 0.694032 0.547201 0.176195
796 4 0.582646 0.659131 0.180241
1405 4 0.870391 0.629781 0.0913245
1404 2 0.878109 0.596828 0.0788778
1266 2 0.61161 0.00195167 0.466895
144 2 0.587291 0.706807 0.109748
145 4 0.619578 0.690806 0.108371
983 4 0.571759 0.809171 0.098009
51 2 0.512654 0.830799 0.0796459
53 4 0.547022 0.834672 0.0898571
298 4 0.534409 0.773317 0.142381
1172 4 0.716795 0.756325 0.164052
773 4 0.963928 0.757787 0.0902994
1445 4 0.506162 0.80427 0.145776
335 4 0.576096 0.931075 0.122417
333 2 0.540212 0.928209 0.120297
497 4 0.716387 0.89231 0.0769771
495 2 0.749515 0.889034 0.0908405
496 4 0.782643 0.885758 0.104704
1379 4 0.791822 0.878733 0.139488
1472 4 0.561899 0.993923 0.0865572
1470 2 0.544848 0.0176136 0.107733
1471 4 0.527797 0.0413042 0.12891
422 4 0.679829 0.975099 0.0824687
909 2 0.674051 0.977701 0.156514
911 4 0.672443 0.964357 0.123052
910 4 0.67566 0.991047 0.189977
414 2 0.659099 0.0526678 0.173211
142 4 0.812938 0.987338 0.232207
684 2 0.529767 0.303894 0.491932
238 4 0.919331 0.998402 0.279409
402 2 0.578885 0.104612 0.201864
403 4 0.557436 0.133593 0.201211
404 4 0.600335 0.0756316 0.202517
103 4 0.636294 0.0973423 0.204936
416 4 0.638363 0.0821675 0.172783
102 2 0.666658 0.11294 0.216565
104 4 0.697021 0.128536 0.228193
23 3 0.711833 0.114304 0.19816
21 1 0.733017 0.134669 0.182148
22 3 0.759812 0.117318 0.173114
1289 4 0.786221 0.0856745 0.215288
1035 2 0.902603 0.117685 0.200065
1036 4 0.913106 0.105426 0.167819
1271 4 0.857493 0.17357 0.208657
1486 4 0.946992 0.156813 0.274952
1485 2 0.964607 0.162967 0.244094
907 4 0.585673 0.147046 0.218353