ITEM: TIMESTEP
1756000
ITEM: NUMBER OF ATOMS
1520
ITEM: BOX BOUNDS pp pp pp
-6.9326749999999997e+00 6.9326749999999997e+00
-6.9326749999999997e+00 6.9326749999999997e+00
-6.9326749999999997e+00 6.9326749999999997e+00
ITEM: ATOMS id type xs ys zs
814 4 0.499876 0.054443 0.0275899
1485 2 0.180468 0.107938 0.0964224
1486 4 0.168336 0.119585 0.0645212
974 4 0.47669 0.267081 0.439402
893 4 0.302448 0.192152 0.00875605
1022 4 0.39218 0.0669932 0.0549996
1020 2 0.398886 0.101986 0.0494335
179 4 0.0176053 0.159972 0.0853262
506 4 0.136391 0.211854 0.0232112
504 2 0.142609 0.17858 0.0356431
505 4 0.148827 0.145305 0.0480757
1475 4 0.355439 0.256714 0.0404746
754 4 0.0280893 0.536734 0.378877
1473 2 0.382011 0.24595 0.062349
1474 4 0.408583 0.235186 0.0842238
206 4 0.422705 0.217502 0.00627415
204 2 0.430557 0.182343 0.00467455
112 4 0.487286 0.160785 0.172963
1033 4 0.2572 0.328658 0.103983
1032 2 0.276525 0.358963 0.101056
1073 4 0.318093 0.3925 0.0755116
1236 2 0.134885 0.483517 0.0645012
1238 4 0.165567 0.502431 0.0656432
1071 2 0.324735 0.419034 0.0520143
1072 4 0.331377 0.445569 0.0285142
155 4 0.338601 0.469833 0.0572931
466 4 0.0522957 0.504709 0.0216986
898 4 0.131636 0.653254 0.0671153
1237 4 0.104203 0.464603 0.063359
133 4 0.0701734 0.622432 0.0209574
1093 4 0.0553591 0.561447 0.0240774
1092 2 0.0880885 0.572595 0.0138348
132 2 0.0491399 0.634868 0.0474794
1094 4 0.120818 0.583743 0.00359207
899 4 0.160226 0.625493 0.00700294
897 2 0.145931 0.639373 0.0370601
1202 4 0.480352 0.297093 0.463781
73 4 0.177773 0.721216 0.0607655
1064 4 0.34096 0.807331 0.0313634
617 4 0.496093 0.39183 0.135091
870 2 0.110255 0.863447 0.0306748
796 4 0.131293 0.854255 0.0933541
321 2 0.263083 0.91186 0.0540352
323 4 0.277514 0.879407 0.0602778
1322 4 0.49881 0.865322 0.0726959
1321 4 0.473061 0.869636 0.00546529
1320 2 0.485935 0.86748 0.0390805
633 2 0.160444 0.955771 0.0292647
635 4 0.141454 0.958605 0.0597895
322 4 0.248652 0.944313 0.047793
720 2 0.339799 0.933344 0.0041852
722 4 0.363466 0.956189 0.0189622
1312 4 0.247809 0.0516929 0.148065
1313 4 0.314731 0.0256044 0.141545
1311 2 0.28127 0.0386486 0.144805
182 4 0.238708 0.0858406 0.158299
597 2 0.471494 0.0783864 0.109204
599 4 0.489626 0.0526561 0.126797
1487 4 0.192601 0.0962904 0.128322
551 4 0.348718 0.0736414 0.12249
1021 4 0.405591 0.136978 0.0438672
598 4 0.453363 0.104118 0.0916096
113 4 0.458974 0.137534 0.110837
1047 2 0.0625942 0.173794 0.13012
1048 4 0.0320442 0.157443 0.12013
1049 4 0.0931435 0.190145 0.140109
151 4 0.109485 0.197361 0.172564
111 2 0.47313 0.14916 0.1419
1191 2 0.134617 0.260009 0.131363
1192 4 0.118778 0.249018 0.100888
1034 4 0.295849 0.389267 0.0981299
4 3 0.363993 0.407906 0.152971
1 1 0.334806 0.418653 0.140621
615 2 0.475398 0.394627 0.105691
1200 2 0.493192 0.317451 0.490635
1046 4 0.439986 0.996163 0.192576
195 2 0.495249 0.320889 0.149899
387 2 0.141312 0.482635 0.159724
388 4 0.106226 0.480715 0.151618
230 4 0.299678 0.443072 0.187502
2 3 0.327505 0.401029 0.113481
153 2 0.346829 0.49454 0.0822392
154 4 0.355057 0.519248 0.107185
5 3 0.337048 0.450428 0.13261
1280 4 0.363499 0.449289 0.161022
616 4 0.454702 0.397425 0.0762927
574 4 0.0722076 0.563042 0.101335
573 2 0.0365972 0.564052 0.106927
1367 4 0.50062 0.941387 0.432254
545 4 0.163972 0.565372 0.126953
544 4 0.146203 0.581489 0.194969
543 2 0.155087 0.57343 0.160961
925 4 0.36569 0.740747 0.0728674
134 4 0.0281078 0.647303 0.0739996
72 2 0.174486 0.696661 0.0869694
74 4 0.171199 0.672106 0.113174
80 4 0.202621 0.682949 0.124329
924 2 0.395571 0.722613 0.0817361
926 4 0.425454 0.704479 0.0906036
1162 4 0.4617 0.734346 0.103981
1161 2 0.488828 0.718851 0.0859708
1138 4 0.314362 0.764083 0.193468
205 4 0.438411 0.147183 0.00307464
1354 4 0.0296272 0.825739 0.141339
871 4 0.123709 0.874235 0.0623461
795 2 0.143925 0.878606 0.116762
797 4 0.156557 0.902956 0.140169
104 4 0.366231 0.824491 0.151551
490 4 0.461914 0.959413 0.121835
102 2 0.36149 0.859489 0.144268
803 4 0.406308 0.88404 0.0731719
801 2 0.412942 0.84898 0.0783861
802 4 0.419577 0.81392 0.0836001
491 4 0.391723 0.950938 0.136085
489 2 0.426819 0.955176 0.128959
1343 4 0.477775 0.930607 0.170697
516 2 0.0994874 0.0678037 0.174901
518 4 0.0843748 0.0547754 0.20494
791 4 0.0516839 0.0631834 0.224805
517 4 0.114599 0.0808323 0.144863
180 2 0.231207 0.0880095 0.193505
181 4 0.223706 0.0901789 0.228711
550 4 0.399235 0.0689774 0.173752
447 2 0.42384 0.0772068 0.230808
448 4 0.400266 0.0628724 0.207588
549 2 0.373976 0.0713091 0.148121
986 4 0.280765 0.0327672 0.322479
1045 4 0.48843 0.0303468 0.151513
1044 2 0.464208 0.0132555 0.172044
152 4 0.156187 0.164721 0.216782
823 4 0.189454 0.0861021 0.24337
822 2 0.162885 0.110075 0.238922
150 2 0.132837 0.181042 0.194673
1114 4 0.452023 0.262984 0.253274
730 4 0.464086 0.252576 0.286927
1193 4 0.150456 0.270999 0.161838
1115 4 0.472529 0.27254 0.184792
1113 2 0.462276 0.267762 0.219033
196 4 0.48548 0.286196 0.151081
605 4 0.138765 0.329349 0.183751
603 2 0.11474 0.355928 0.179654
604 4 0.0907162 0.382507 0.175558
3 3 0.310526 0.414264 0.163229
389 4 0.176397 0.484555 0.16783
228 2 0.304925 0.459533 0.219155
229 4 0.310171 0.475993 0.250808
1278 2 0.391017 0.448268 0.184306
1279 4 0.418535 0.447246 0.207589
1277 4 0.448047 0.595223 0.238373
276 2 0.380082 0.574628 0.171409
277 4 0.346012 0.580491 0.181673
1276 4 0.448344 0.667337 0.239362
278 4 0.414152 0.568765 0.161145
1275 2 0.448196 0.63128 0.238867
1479 2 0.0132387 0.685821 0.235075
1480 4 0.0320392 0.6691 0.20924
1126 4 0.128942 0.72642 0.276677
1142 4 0.130278 0.723301 0.239853
1140 2 0.157158 0.701222 0.230346
1141 4 0.184038 0.679141 0.220839
79 4 0.206359 0.666009 0.194334
78 2 0.20449 0.674479 0.159331
1427 4 0.245771 0.688875 0.223944
610 4 0.499583 0.592509 0.058347
839 4 0.221572 0.934382 0.474512
1297 4 0.230852 0.761513 0.216906
1137 2 0.309982 0.799852 0.192113
173 4 0.288776 0.846222 0.222781
1139 4 0.305601 0.83562 0.190759
1055 4 0.438252 0.842975 0.236381
1053 2 0.455227 0.818475 0.256678
1353 2 0.00858198 0.83627 0.168666
1296 2 0.224846 0.794648 0.204008
103 4 0.356749 0.894487 0.136986
244 4 0.165601 0.911559 0.193914
243 2 0.150117 0.941507 0.181116
245 4 0.134632 0.971454 0.168319
364 4 0.353451 0.985181 0.233131
365 4 0.361031 0.963024 0.164916
363 2 0.357241 0.974103 0.199024
431 4 0.472328 0.95666 0.258758
1342 4 0.466466 0.900172 0.235097
1341 2 0.47212 0.915389 0.202897
789 2 0.0433721 0.0580687 0.259521
790 4 0.0350595 0.0529551 0.294237
1004 4 0.0318128 0.0516889 0.33041
985 4 0.312635 0.0606739 0.264107
1285 4 0.301561 0.115169 0.306736
984 2 0.2967 0.0467203 0.293293
430 4 0.423547 0.998527 0.226057
449 4 0.447415 0.0915417 0.254029
631 4 0.337846 0.874003 0.480874
1270 4 0.470832 0.991431 0.325892
1306 4 0.409039 0.00277029 0.472602
1269 2 0.456879 0.024684 0.32588
1002 2 0.034516 0.087181 0.33619
1003 4 0.0372193 0.122673 0.34197
824 4 0.136317 0.13405 0.234474
1284 2 0.269784 0.124968 0.320685
377 4 0.498641 0.084952 0.299241
1491 2 0.473328 0.130701 0.275236
1493 4 0.468894 0.0956839 0.282624
1415 4 0.135907 0.170966 0.251421
1413 2 0.142278 0.197589 0.274897
1414 4 0.148647 0.224213 0.29837
1111 4 0.13878 0.222592 0.337457
729 2 0.460055 0.216918 0.290491
731 4 0.456023 0.181261 0.294054
1492 4 0.477762 0.165717 0.267847
468 2 0.317818 0.284538 0.288929
470 4 0.2999 0.263437 0.265818
24 3 0.0296972 0.414461 0.341159
1108 4 0.326217 0.380194 0.329807
21 1 0.0251086 0.427017 0.310479
1194 2 0.0415662 0.937595 0.444579
22 3 0.0446208 0.410695 0.289182
25 3 0.0329951 0.458899 0.310123
1182 2 0.0717552 0.510159 0.296915
1183 4 0.0550031 0.528784 0.322856
1043 4 0.101098 0.566911 0.233286
124 4 0.178635 0.549163 0.361966
1041 2 0.0956298 0.594199 0.256217
1184 4 0.0885067 0.491536 0.270974
123 2 0.205389 0.548565 0.337794
125 4 0.232144 0.547968 0.313623
1159 4 0.255988 0.543787 0.339732
1158 2 0.289314 0.540431 0.353094
695 4 0.435867 0.561619 0.244977
693 2 0.413402 0.543276 0.266407
1042 4 0.0901614 0.621487 0.279149
1160 4 0.32264 0.537074 0.366456
393 2 0.347954 0.625165 0.295004
394 4 0.316788 0.631245 0.27791
395 4 0.379119 0.619087 0.312096
1127 4 0.0604514 0.736058 0.256233
1125 2 0.0946964 0.731239 0.266454
370 4 0.0132452 0.983917 0.152695
548 4 0.177855 0.762808 0.345298
1243 4 0.19185 0.762519 0.311613
1426 4 0.276338 0.641223 0.268628
1425 2 0.261054 0.665049 0.246286
847 4 0.373032 0.627801 0.393536
1244 4 0.201002 0.748746 0.241411
1242 2 0.196426 0.755633 0.276512
482 4 0.32428 0.87538 0.314528
647 4 0.372595 0.784878 0.312288
645 2 0.370465 0.813305 0.290204
646 4 0.368335 0.841733 0.268119
1054 4 0.472202 0.793975 0.276976
282 2 0.0389119 0.90444 0.295525
704 4 0.0224206 0.912868 0.114823
284 4 0.0698552 0.908631 0.313563
149 4 0.149378 0.834691 0.315772
1298 4 0.218839 0.827784 0.191109
147 2 0.154189 0.869559 0.323611
148 4 0.159001 0.904428 0.33145
172 4 0.326425 0.853104 0.283912
171 2 0.3076 0.849663 0.253347
235 4 0.0611669 0.971181 0.273229
710 4 0.0606493 0.909418 0.352516
234 2 0.0929945 0.982503 0.285848
236 4 0.124823 0.993825 0.298467
1135 4 0.126844 0.985254 0.339556
1134 2 0.159622 0.970239 0.338821
429 2 0.447938 0.977593 0.242408
1498 4 0.329476 0.120508 0.438739
1271 4 0.442926 0.0579363 0.32587
1348 4 0.0617433 0.182271 0.47832
59 4 0.0879563 0.136846 0.39299
57 2 0.105313 0.129938 0.423835
326 4 0.209985 0.169881 0.415775
1286 4 0.238007 0.134768 0.334634
287 4 0.455164 0.100541 0.416312
92 4 0.00981973 0.195636 0.416971
1077 2 0.0599424 0.234077 0.39674
1079 4 0.0751211 0.261592 0.379051
1110 2 0.120669 0.25027 0.351822
207 2 0.327862 0.254338 0.404341
208 4 0.340298 0.226159 0.423094
1433 4 0.457247 0.224358 0.35346
1431 2 0.430777 0.248236 0.358893
1018 4 0.485503 0.237793 0.341229
1112 4 0.102559 0.277948 0.366187
1028 4 0.217621 0.257028 0.421344
1027 4 0.245559 0.319714 0.399173
1026 2 0.23159 0.288371 0.410258
209 4 0.315425 0.282517 0.385588
469 4 0.335737 0.30564 0.312039
128 4 0.340068 0.30613 0.367762
1432 4 0.404306 0.272115 0.364326
991 4 0.413583 0.272354 0.401812
990 2 0.419718 0.30373 0.418495
127 4 0.297554 0.361135 0.386966
126 2 0.318812 0.333632 0.377364
1109 4 0.386664 0.41928 0.325329
1107 2 0.35644 0.399737 0.327568
408 2 0.414885 0.384524 0.382712
410 4 0.42099 0.362018 0.410221
1196 4 0.0225308 0.911317 0.460313
218 4 0.197164 0.427618 0.35261
216 2 0.17382 0.445722 0.373291
409 4 0.408782 0.407028 0.355204
689 4 0.0783976 0.538519 0.39592
859 4 0.352584 0.564491 0.399155
676 4 0.246174 0.574299 0.458413
694 4 0.390935 0.524933 0.287837
570 2 0.00823184 0.598775 0.3943
571 4 0.0299593 0.570085 0.396597
626 4 0.473723 0.612919 0.0767433
781 4 0.110849 0.682969 0.377221
780 2 0.10369 0.664497 0.407353
860 4 0.377633 0.594947 0.338768
858 2 0.365109 0.579719 0.368961
772 4 0.202642 0.638208 0.356479
773 4 0.194062 0.687036 0.408861
771 2 0.198352 0.662622 0.38267
591 2 0.342721 0.711729 0.441179
593 4 0.368838 0.732315 0.427233
846 2 0.372703 0.659442 0.376242
848 4 0.372374 0.691084 0.358946
118 4 0.432886 0.740002 0.410379
547 4 0.133513 0.819637 0.34286
546 2 0.155684 0.791223 0.344079
481 4 0.311786 0.871254 0.38544
480 2 0.318033 0.873317 0.349984
1450 4 0.39097 0.755197 0.320707
1449 2 0.400549 0.757877 0.355369
1451 4 0.410127 0.760557 0.390032
708 2 0.0789688 0.940472 0.353178
709 4 0.0972885 0.971526 0.353839
1195 4 0.0606013 0.963873 0.428844
143 4 0.19167 0.920524 0.339221
1136 4 0.192401 0.955224 0.338086
141 2 0.224464 0.929733 0.351058
142 4 0.257258 0.938944 0.362895
844 4 0.378303 0.944297 0.433772
843 2 0.349912 0.946236 0.411622
845 4 0.321521 0.948174 0.389473
175 4 0.488255 0.0490117 0.491997
369 2 0.00302274 0.0148501 0.168156
578 4 0.0355282 0.0242557 0.435939
743 4 0.0596223 0.02877 0.408117
741 2 0.0767532 0.997042 0.40761
1281 2 0.13791 0.728207 0.462247
742 4 0.0938836 0.965313 0.407104
1345 4 0.278134 0.109586 0.424041
838 4 0.226675 0.999461 0.443849
1499 4 0.290758 0.0741891 0.478199
1307 4 0.367428 0.0602315 0.459628
1497 2 0.310117 0.0973487 0.458469
1305 2 0.388233 0.0315009 0.466115
202 4 0.0579831 0.111062 0.457575
201 2 0.0627972 0.10154 0.492021
58 4 0.12267 0.123029 0.454681
325 4 0.16643 0.195436 0.467266
324 2 0.188208 0.182658 0.441521
1344 2 0.246154 0.122878 0.41399
1346 4 0.214174 0.13617 0.40394
1268 4 0.407047 0.137891 0.481961
286 4 0.419199 0.152327 0.451335
285 2 0.437182 0.126432 0.433823
837 2 0.224123 0.966922 0.45918
1078 4 0.0447635 0.206562 0.41443
1349 4 0.133616 0.187644 0.481
1347 2 0.09768 0.184958 0.479661
973 4 0.498038 0.211834 0.480556
972 2 0.487364 0.239457 0.459979
465 2 0.0255543 0.481902 0.0297692
938 4 0.176365 0.35445 0.461435
1350 2 0.26818 0.379386 0.436917
1352 4 0.251535 0.367941 0.466789
936 2 0.173287 0.38187 0.484653
283 4 0.00796889 0.900248 0.277487
1351 4 0.284826 0.39083 0.407044
19 3 0.382288 0.410946 0.463693
992 4 0.425854 0.335106 0.435178
835 4 0.0659016 0.43068 0.496379
836 4 0.042539 0.370384 0.46444
217 4 0.150476 0.463826 0.393973
834 2 0.0542206 0.400532 0.48041
16 1 0.396168 0.437448 0.478692
20 3 0.388165 0.464919 0.462564
18 3 0.429442 0.433977 0.479523
933 2 0.0165123 0.489215 0.482207
934 4 0.050043 0.482123 0.493423
254 4 0.181525 0.561885 0.485354
688 4 0.0583385 0.503639 0.455776
687 2 0.068368 0.521079 0.425848
252 2 0.159156 0.538126 0.470003
253 4 0.136789 0.514369 0.454651
86 4 0.426515 0.515735 0.434994
85 4 0.35976 0.518792 0.462123
84 2 0.393138 0.517264 0.448558
782 4 0.0965311 0.646025 0.437485
949 4 0.0960902 0.633868 0.470588
948 2 0.099695 0.654831 0.499707
675 2 0.252135 0.539782 0.449843
677 4 0.258097 0.505265 0.441273
401 4 0.308402 0.5852 0.45306
399 2 0.292021 0.606563 0.429066
1234 4 0.444523 0.625457 0.477848
1233 2 0.457754 0.64284 0.449156
753 2 0.00733145 0.513112 0.361226
1282 4 0.165638 0.730262 0.485211
592 4 0.316604 0.691141 0.455125
400 4 0.275641 0.627927 0.405072
117 2 0.457454 0.71683 0.423021
1235 4 0.470985 0.660222 0.420464
119 4 0.482023 0.693656 0.435662
1442 4 0.0309558 0.839876 0.431314
1440 2 0.0374607 0.846963 0.466069
1441 4 0.0439651 0.854049 0.500823
1283 4 0.11018 0.726153 0.439284
177 2 0.00260458 0.176181 0.0568182
624 2 0.495109 0.640139 0.0666355
575 4 0.000986857 0.565062 0.112519
904 4 0.105321 0.315296 0.493815
1062 2 0.355654 0.789765 0.00350779
137 4 0.0998542 0.974114 0.538256
135 2 0.0688454 0.962978 0.523597
735 2 0.463273 0.45381 0.869936
339 2 0.236817 0.985289 0.570622
341 4 0.222313 0.956388 0.55466
542 4 0.476075 0.934153 0.881354
1308 2 0.278077 0.0974018 0.525138
1310 4 0.291729 0.12229 0.547377
308 4 0.425456 0.502151 0.672161
1267 4 0.367537 0.131131 0.54192
139 4 0.349613 0.156173 0.517787
1266 2 0.387292 0.13451 0.51194
1273 4 0.491077 0.569288 0.832094
140 4 0.296914 0.18648 0.556594
138 2 0.323263 0.171327 0.53719
1167 2 0.348419 0.276236 0.55098
1169 4 0.364482 0.308105 0.545803
879 2 0.00738514 0.345654 0.724869
580 4 0.00422577 0.943932 0.509133
903 2 0.0927021 0.326183 0.525794
906 2 0.321993 0.367521 0.58602
908 4 0.334413 0.333834 0.589391
136 4 0.0378371 0.951843 0.508938
459 2 0.0723182 0.455066 0.538976
460 4 0.0806099 0.463277 0.504855
17 3 0.384802 0.439336 0.509803
601 4 0.398301 0.410416 0.530024
600 2 0.380928 0.427465 0.556631
427 4 0.021154 0.561596 0.618092
314 4 0.370668 0.637823 0.519611
312 2 0.399452 0.617741 0.511332
313 4 0.428237 0.597658 0.503053
1088 4 0.0177066 0.687413 0.597758
950 4 0.1033 0.675795 0.528826
1086 2 0.0200498 0.692481 0.562132
1087 4 0.0223919 0.697547 0.526506
1501 4 0.0187574 0.727725 0.505052
829 4 0.28559 0.78596 0.587538
1428 2 0.434159 0.678752 0.580984
1429 4 0.442625 0.65108 0.559468
1340 4 0.111257 0.823049 0.564474
1338 2 0.0807885 0.826118 0.545429
1339 4 0.0503208 0.829188 0.526383
888 2 0.29673 0.851067 0.577862
889 4 0.275395 0.822238 0.574101
890 4 0.318066 0.879895 0.581624
203 4 0.0676115 0.0920193 0.526468
632 4 0.364603 0.919631 0.529904
1222 4 0.354941 0.860766 0.586396
256 4 0.446099 0.835298 0.647895
1091 4 0.094173 0.00995004 0.552166
280 4 0.14706 0.93747 0.546301
279 2 0.177674 0.937526 0.527243
281 4 0.208288 0.937583 0.508185
340 4 0.25132 0.0141909 0.586584
630 2 0.351225 0.896817 0.505389
1264 4 0.352459 0.0286581 0.639981
1387 4 0.33335 0.0356343 0.609887
1300 4 0.417221 0.0414488 0.602248
1299 2 0.448413 0.0242891 0.596501
793 4 0.0835555 0.113402 0.549884
792 2 0.105767 0.103812 0.576625
794 4 0.127979 0.0942214 0.603366
55 4 0.165049 0.10301 0.582513
54 2 0.191325 0.110009 0.606199
1040 4 0.126095 0.147335 0.66122
1211 4 0.371606 0.174975 0.638436
1209 2 0.378513 0.154358 0.609667
1210 4 0.385418 0.13374 0.580898
1039 4 0.138839 0.207081 0.699557
1038 2 0.132467 0.177208 0.680389
1168 4 0.332356 0.244368 0.556156
1457 4 0.393537 0.315249 0.584114
1456 4 0.459633 0.291562 0.600607
1455 2 0.426585 0.303405 0.59236
1007 4 0.0408913 0.360843 0.654356
1005 2 0.0550538 0.347421 0.624029
190 4 0.0176078 0.385352 0.644155
1006 4 0.0692168 0.333999 0.593702
905 4 0.0800814 0.337068 0.557773
907 4 0.309572 0.401207 0.58265
644 4 0.422865 0.399509 0.654265
642 2 0.400733 0.376832 0.63705
461 4 0.0640255 0.446852 0.573096
1482 2 0.111754 0.474803 0.676288
1483 4 0.131674 0.471469 0.646414
788 4 0.258436 0.488488 0.677785
786 2 0.238881 0.477282 0.649634
1248 2 0.365224 0.465222 0.641359
1250 4 0.344084 0.448438 0.617447
602 4 0.363553 0.444513 0.583238
721 4 0.316131 0.910498 0.989408
247 4 0.0985131 0.543668 0.718918
1336 4 0.113741 0.621186 0.590829
1335 2 0.123848 0.587261 0.597709
1337 4 0.133954 0.553335 0.604589
307 4 0.491159 0.518999 0.647646
306 2 0.458308 0.510575 0.659904
440 4 0.477274 0.554453 0.633436
1316 4 0.0945338 0.65068 0.593628
1315 4 0.0347745 0.657542 0.63342
1314 2 0.0646541 0.654111 0.613524
826 4 0.30634 0.643482 0.634866
439 4 0.437792 0.586356 0.5822
438 2 0.457533 0.570405 0.607818
271 4 0.210131 0.700839 0.578818
270 2 0.22426 0.707215 0.611377
272 4 0.238396 0.713593 0.64395
830 4 0.27262 0.735693 0.637625
828 2 0.279107 0.760831 0.612576
825 2 0.289957 0.672879 0.647821
827 4 0.273568 0.702295 0.660784
116 4 0.29479 0.734894 0.672368
115 4 0.364565 0.752534 0.677262
114 2 0.329683 0.743715 0.674816
1430 4 0.425692 0.706425 0.6025
318 2 0.405262 0.718989 0.667566
320 4 0.418378 0.705255 0.636912
260 4 0.148021 0.797427 0.663923
258 2 0.142494 0.80667 0.629507
259 4 0.136966 0.815913 0.595091
1223 4 0.378208 0.811634 0.633793
1221 2 0.366575 0.8362 0.610095
555 2 0.374187 0.920651 0.655741
1391 4 0.325533 0.913696 0.624363
556 4 0.408391 0.929753 0.648835
257 4 0.438486 0.907005 0.646508
255 2 0.442292 0.871151 0.647201
1090 4 0.103871 0.987349 0.619966
1089 2 0.0990222 0.99865 0.586066
1388 4 0.307806 0.988463 0.561678
1386 2 0.320578 0.0120483 0.585783
1390 4 0.323063 0.955536 0.565669
1389 2 0.324298 0.934615 0.595015
557 4 0.339984 0.911548 0.662645
144 2 0.473735 0.954868 0.646371
1301 4 0.479605 0.00712938 0.590753
1466 4 0.44442 0.917638 0.94661
165 2 0.134617 0.0131128 0.709298
167 4 0.147308 0.0457112 0.718059
1263 2 0.337275 0.0304071 0.672643
1265 4 0.322092 0.0321557 0.705305
56 4 0.2176 0.117008 0.629885
391 4 0.117789 0.0648734 0.707374
390 2 0.11078 0.0828762 0.737824
392 4 0.103773 0.10088 0.768274
656 4 0.379442 0.140737 0.734413
654 2 0.40999 0.12158 0.733929
634 4 0.179434 0.952938 0.99874
568 4 0.475174 0.0907579 0.731883
655 4 0.440538 0.102424 0.733447
1207 4 0.0307073 0.191488 0.671923
1206 2 0.00571721 0.195209 0.697654
851 4 0.151947 0.23382 0.677072
849 2 0.171783 0.244961 0.705052
809 4 0.211957 0.230635 0.745744
850 4 0.191618 0.256101 0.733032
807 2 0.211596 0.195898 0.755419
881 4 0.0331171 0.320728 0.728983
63 2 0.246023 0.340117 0.744067
65 4 0.242392 0.338194 0.708241
487 4 0.40174 0.300848 0.765477
914 4 0.0674822 0.338348 0.725547
912 2 0.0931543 0.363586 0.727681
403 4 0.135069 0.391328 0.761108
64 4 0.249653 0.34204 0.779893
787 4 0.219326 0.466076 0.621483
643 4 0.3786 0.354156 0.619835
1484 4 0.0918329 0.478139 0.706162
1249 4 0.386364 0.482007 0.665272
146 4 0.469306 0.981648 0.670112
300 2 0.48016 0.474522 0.733215
302 4 0.488035 0.479395 0.768067
246 2 0.100642 0.572613 0.740319
248 4 0.102772 0.601559 0.761721
895 4 0.094744 0.636617 0.760162
894 2 0.123854 0.649674 0.743354
896 4 0.152964 0.66273 0.726545
1259 4 0.189619 0.65374 0.707984
1257 2 0.214487 0.676523 0.695219
161 4 0.214076 0.729586 0.672288
1258 4 0.239364 0.699317 0.682453
667 4 0.254195 0.736139 0.673783
680 4 0.274179 0.712474 0.700086
678 2 0.288707 0.711886 0.733101
160 4 0.150102 0.762731 0.675698
159 2 0.182086 0.746161 0.673995
666 2 0.256756 0.770132 0.685609
668 4 0.259317 0.804105 0.697426
319 4 0.392146 0.732725 0.698221
1379 4 0.129985 0.8394 0.695455
1377 2 0.12081 0.87096 0.710294
145 4 0.478165 0.928089 0.62263
41 1 0.49812 0.829331 0.72124
820 4 0.4339 0.59452 0.983814
595 4 0.108695 0.962309 0.653898
596 4 0.0642523 0.956264 0.710378
594 2 0.086474 0.959286 0.682138
166 4 0.121925 0.980516 0.700539
1378 4 0.111636 0.90252 0.725132
66 2 0.0164039 0.0413809 0.804839
959 4 0.111565 0.0399812 0.886031
1104 2 0.231678 0.0549275 0.752886
1105 4 0.23412 0.0487007 0.717451
418 4 0.107113 0.138684 0.759218
417 2 0.113143 0.134054 0.794469
1106 4 0.229236 0.061156 0.788321
1453 4 0.379412 0.176122 0.748041
808 4 0.211235 0.161161 0.765094
882 2 0.313642 0.179527 0.825416
884 4 0.345428 0.181981 0.84227
883 4 0.281856 0.177073 0.808562
1454 4 0.428128 0.20385 0.793425
1452 2 0.40377 0.189985 0.770733
486 2 0.41795 0.272225 0.780255
488 4 0.43416 0.243602 0.795034
913 4 0.118824 0.388823 0.729815
402 2 0.122361 0.421828 0.775554
37 3 0.0138603 0.44343 0.820423
1511 4 0.0617603 0.480318 0.856942
1509 2 0.0810834 0.456403 0.838098
404 4 0.109653 0.452327 0.790001
50 3 0.0446694 0.554346 0.849986
1423 4 0.473994 0.768372 0.732339
1246 4 0.0159431 0.167846 0.943261
356 4 0.412287 0.938946 0.953246
48 3 0.0535138 0.595082 0.815184
679 4 0.303231 0.711305 0.766103
225 2 0.349915 0.763028 0.830865
227 4 0.364987 0.792076 0.815716
1464 2 0.478599 0.928396 0.950682
334 4 0.0112004 0.886313 0.83569
1436 4 0.189188 0.892925 0.847418
711 2 0.248044 0.902 0.812886
712 4 0.283627 0.896534 0.810796
857 4 0.291077 0.86351 0.804377
856 4 0.347237 0.836673 0.767942
855 2 0.319157 0.850092 0.78616
45 3 0.470232 0.844726 0.729246
42 3 0.494297 0.796698 0.725843
511 4 0.396181 0.950566 0.784441
510 2 0.428735 0.940191 0.772908
512 4 0.461289 0.929816 0.761376
68 4 0.0424201 0.0442327 0.78003
454 4 0.23803 0.0177927 0.867733
453 2 0.236507 0.990889 0.843769
1181 4 0.273152 0.0147905 0.863662
1179 2 0.308215 0.0090207 0.8698
1180 4 0.343279 0.00325122 0.875939
419 4 0.119171 0.129424 0.829717
539 4 0.126229 0.109515 0.856135
537 2 0.118598 0.104878 0.891072
538 4 0.110966 0.100242 0.92601
923 4 0.322146 0.198058 0.979759
1407 2 0.0100529 0.187858 0.893769
650 4 0.00807947 0.836421 0.603054
32 3 0.171583 0.254499 0.853654
34 3 0.22307 0.248908 0.869659
33 3 0.184068 0.262057 0.905859
31 1 0.19474 0.266079 0.874396
1133 4 0.188013 0.299657 0.90328
35 3 0.199794 0.297949 0.868266
1131 2 0.20125 0.321015 0.929145
40 3 0.0104003 0.443496 0.874138
1325 4 0.0323242 0.422874 0.895661
424 4 0.283706 0.43437 0.884637
425 4 0.34563 0.400482 0.899427
423 2 0.314668 0.417426 0.892032
1510 4 0.100408 0.432488 0.819255
736 4 0.427774 0.45965 0.872409
49 3 0.0792511 0.59395 0.863565
670 4 0.0100285 0.551787 0.847364
1437 2 0.406658 0.548744 0.895957
1439 4 0.38065 0.569677 0.882326
1272 2 0.469648 0.591138 0.851166
1438 4 0.432665 0.527811 0.909588
46 1 0.0509019 0.586493 0.847422
47 3 0.0259642 0.603582 0.861088
931 4 0.298854 0.566512 0.8464
930 2 0.297998 0.601315 0.836995
932 4 0.297143 0.636116 0.827589
746 4 0.403672 0.653135 0.884333
1274 4 0.448219 0.612987 0.87024
744 2 0.434514 0.661018 0.901276
745 4 0.465355 0.6689 0.91822
463 4 0.103498 0.728681 0.831463
464 4 0.158264 0.681822 0.828911
462 2 0.130881 0.705251 0.830187
226 4 0.334845 0.733981 0.846016
274 4 0.457599 0.71901 0.892734
273 2 0.471377 0.746347 0.911793
1435 4 0.149556 0.94267 0.881424
1434 2 0.169371 0.917797 0.864421
713 4 0.212461 0.907465 0.814978
957 2 0.123565 0.00642219 0.891525
958 4 0.135567 0.972863 0.897017
455 4 0.234984 0.963986 0.819805
36 1 0.00585547 0.425408 0.847102
301 4 0.472285 0.46965 0.698362
1417 4 0.446813 0.868619 0.943121
892 4 0.26192 0.139183 0.981304
1461 2 0.489568 0.165364 0.959292
1462 4 0.466159 0.16471 0.986715
1409 4 0.033693 0.164441 0.90767
922 4 0.3518 0.253516 0.944451
921 2 0.336973 0.225787 0.962104
354 2 0.41065 0.903838 0.94517
995 4 0.280273 0.264768 0.991893
993 2 0.294052 0.296333 0.981208
1132 4 0.214486 0.342374 0.955011
994 4 0.307832 0.3279 0.970525
873 2 0.315903 0.386349 0.968896
875 4 0.315142 0.35673 0.989451
1323 2 0.021308 0.437589 0.926686
1324 4 0.0102919 0.452305 0.95771
874 4 0.316663 0.415968 0.948341
1447 4 0.364906 0.475155 0.950692
1446 2 0.399159 0.472598 0.939708
1448 4 0.433412 0.47004 0.928726
891 2 0.282184 0.165667 0.99503
683 4 0.457903 0.522654 0.934316
681 2 0.480944 0.50631 0.956731
1369 4 0.189775 0.645503 0.000356092
39 3 0.0254182 0.398274 0.848094
1368 2 0.178588 0.672717 0.979508
497 4 0.343082 0.620684 0.937093
495 2 0.354761 0.638258 0.907849
496 4 0.366441 0.655832 0.878607
821 4 0.473346 0.641762 0.946214
819 2 0.453623 0.618141 0.965014
1370 4 0.167398 0.69993 0.95866
163 4 0.173211 0.734815 0.954672
1063 4 0.370348 0.772199 0.975651
1504 4 0.352677 0.672709 0.941347
1503 2 0.359573 0.70603 0.953286
1505 4 0.366468 0.739351 0.965225
162 2 0.190456 0.752746 0.928567
164 4 0.207701 0.770679 0.902462
355 4 0.409015 0.868732 0.937094
89 4 0.141463 0.775756 0.936425
1416 2 0.459397 0.835785 0.935117
1418 4 0.471981 0.802954 0.927112
275 4 0.485156 0.773684 0.930854
88 4 0.120013 0.831377 0.977022
87 2 0.130738 0.803566 0.956723
872 4 0.0968021 0.852659 0.999004
1309 4 0.264424 0.0725133 0.502899
937 4 0.170208 0.40929 0.50787
813 2 0.516959 0.0772167 0.0497248
815 4 0.534041 0.0999904 0.0718597
1500 2 0.991021 0.713834 0.486663
960 2 0.622795 0.990435 0.0530856
961 4 0.636638 0.967358 0.0770901
866 4 0.646288 0.104428 0.0188676
240 2 0.707545 0.0591422 0.119444
242 4 0.713471 0.083703 0.0937141
384 2 0.783069 0.0390006 0.0602491
386 4 0.786297 0.0586759 0.0902965
385 4 0.779842 0.0193239 0.0302018
865 4 0.686344 0.0738682 0.0704739
864 2 0.666316 0.0891477 0.0446704
1357 4 0.842872 0.142824 0.0456662
420 2 0.637902 0.270072 0.0452998
222 2 0.709625 0.182957 0.0219392
224 4 0.705689 0.151046 0.00561205
422 4 0.634061 0.257844 0.0790068
1356 2 0.83085 0.175057 0.0348541
343 4 0.501895 0.716639 0.147131
608 4 0.581198 0.678365 0.0167281
178 4 0.987605 0.192391 0.0283118
421 4 0.641743 0.2823 0.0115934
223 4 0.713561 0.214869 0.0382657
213 2 0.70631 0.298838 0.0810869
214 4 0.738108 0.285284 0.0708094
1419 2 0.926905 0.291251 0.0815707
1287 2 0.572149 0.396078 0.0255554
1289 4 0.578159 0.361464 0.0174218
941 4 0.935074 0.395048 0.0624673
1421 4 0.946185 0.319641 0.0704939
1508 4 0.583792 0.463374 0.0455786
1506 2 0.560653 0.48911 0.0354459
1288 4 0.566139 0.430693 0.0336885
1009 4 0.741815 0.475355 0.0651926
939 2 0.95469 0.42529 0.0634745
940 4 0.974305 0.455533 0.0644819
467 4 0.998812 0.459096 0.0378398
294 2 0.566115 0.92965 0.0346085
1507 4 0.537515 0.514847 0.0253142
609 2 0.521342 0.56375 0.0584694
611 4 0.5431 0.534992 0.0585904
508 4 0.967226 0.969169 0.447553
622 4 0.714368 0.613712 0.0686107
1008 2 0.711309 0.493448 0.0717066
700 4 0.854326 0.855221 0.00695678
1122 2 0.94401 0.560444 0.0690717
999 2 0.822117 0.573613 0.0138322
1000 4 0.8282 0.564392 0.0481601
606 2 0.602789 0.651189 0.0265095
1174 4 0.624869 0.601122 0.0665691
1173 2 0.659777 0.592754 0.0631402
607 4 0.62438 0.624013 0.0362909
621 2 0.732033 0.595442 0.0430267
1175 4 0.694687 0.584386 0.0597107
623 4 0.749698 0.577171 0.0174431
1124 4 0.949462 0.591246 0.0511292
1365 2 0.522241 0.913271 0.42574
818 4 0.518239 0.676909 0.013352
625 4 0.516494 0.667358 0.0565272
885 2 0.752254 0.749393 0.0388026
886 4 0.753129 0.713344 0.0384951
1011 2 0.890415 0.731196 0.0388701
1013 4 0.910007 0.746888 0.0647612
376 4 0.55055 0.0387308 0.279989
1253 4 0.604298 0.797436 0.0234008
1251 2 0.612357 0.827425 0.041736
1252 4 0.620417 0.857412 0.0600716
1443 2 0.761152 0.832445 0.0375822
1444 4 0.784547 0.805164 0.0405583
887 4 0.751379 0.785443 0.0391098
295 4 0.593807 0.906557 0.0340943
691 4 0.830427 0.884016 0.00696424
690 2 0.807992 0.906731 0.0237319
692 4 0.785557 0.929445 0.0404997
706 4 0.693431 0.953738 0.487171
296 4 0.538423 0.952744 0.0351237
702 2 0.994738 0.903556 0.0936718
962 4 0.608951 0.013512 0.0290808
1229 4 0.917246 0.964295 0.463098
554 4 0.799694 0.93564 0.0741274
572 4 0.986505 0.627464 0.392003
918 2 0.54412 0.0138326 0.133419
920 4 0.523162 0.0220423 0.161593
241 4 0.701619 0.0345812 0.145174
665 4 0.790942 0.070982 0.163824
664 4 0.806331 0.0868706 0.0951767
663 2 0.798636 0.0789272 0.1295
861 2 0.552426 0.198125 0.0941273
863 4 0.527336 0.192214 0.0689078
521 4 0.664403 0.249341 0.094793
519 2 0.683766 0.220384 0.104119
379 4 0.899024 0.172991 0.135613
862 4 0.577515 0.204036 0.119346
215 4 0.674512 0.312391 0.0913643
520 4 0.70313 0.191427 0.113445
378 2 0.899324 0.200572 0.112384
380 4 0.899624 0.228153 0.0891549
1420 4 0.907625 0.26286 0.0926481
1371 2 0.880673 0.426273 0.142189
1372 4 0.878061 0.392466 0.15446
1472 4 0.736786 0.460099 0.18343
1373 4 0.883284 0.460081 0.129916
1494 2 0.904856 0.50192 0.131581
1495 4 0.900595 0.474939 0.155124
1496 4 0.909118 0.528902 0.108038
1010 4 0.680803 0.51154 0.0782204
1070 4 0.802893 0.552605 0.148996
1068 2 0.771178 0.555 0.16599
1123 4 0.938559 0.529642 0.0870139
911 4 0.976555 0.493966 0.183154
909 2 0.979016 0.521153 0.159591
1358 4 0.818828 0.20729 0.0240422
1227 2 0.900192 0.991355 0.479752
8 3 0.535328 0.710645 0.124931
60 2 0.652635 0.771292 0.164893
9 3 0.582507 0.736291 0.135931
10 3 0.538308 0.74617 0.165892
7 3 0.540648 0.763678 0.115047
6 1 0.549165 0.73915 0.135698
61 4 0.66925 0.744403 0.147531
1036 4 0.617039 0.832035 0.104649
1037 4 0.577954 0.775282 0.125937
1035 2 0.597497 0.803659 0.115293