ITEM: TIMESTEP
1510500
ITEM: NUMBER OF ATOMS
1520
ITEM: BOX BOUNDS pp pp pp
-6.9326749999999997e+00 6.9326749999999997e+00
-6.9326749999999997e+00 6.9326749999999997e+00
-6.9326749999999997e+00 6.9326749999999997e+00
ITEM: ATOMS id type xs ys zs
955 4 0.168971 0.0403422 0.0739051
954 2 0.204152 0.0452111 0.0676641
956 4 0.239334 0.0500808 0.0614234
1054 4 0.258753 0.0417117 0.0903034
1053 2 0.292876 0.0306248 0.086679
1055 4 0.326998 0.0195381 0.083055
612 2 0.455201 0.0622664 0.0712872
613 4 0.448636 0.0658629 0.0360116
632 4 0.471969 0.0695493 0.0085876
892 4 0.031194 0.153353 0.013506
891 2 0.0381794 0.144861 0.0478501
893 4 0.0451647 0.136369 0.0821944
793 4 0.0340541 0.192064 0.00917307
800 4 0.24809 0.236668 0.0617813
529 4 0.31337 0.156088 0.0548188
799 4 0.278399 0.171689 0.05398
798 2 0.263244 0.204179 0.0578809
528 2 0.338654 0.181666 0.057447
530 4 0.363938 0.207245 0.0600755
1121 4 0.478531 0.181813 0.04416
1119 2 0.44551 0.178231 0.0301191
1120 4 0.412488 0.174652 0.0160784
1509 2 0.123724 0.291228 0.0693298
1511 4 0.15009 0.314869 0.0625151
488 4 0.160374 0.343991 0.0330342
673 4 0.284583 0.359485 0.0160883
875 4 0.293203 0.367941 0.0473057
873 2 0.308787 0.3613 0.0791396
1262 4 0.495215 0.227539 0.134234
254 4 0.456446 0.388801 0.0201326
319 4 0.454181 0.403748 0.0507569
318 2 0.489793 0.398763 0.0480536
1157 4 0.00557508 0.47847 0.0632673
8 3 0.148335 0.481092 0.0941779
728 4 0.123937 0.457706 0.0820051
1215 2 0.164842 0.50701 0.00148303
1163 4 0.1082 0.486907 0.00287054
10 3 0.193789 0.453119 0.104194
6 1 0.181786 0.481726 0.0934062
9 3 0.192386 0.487516 0.0621968
1280 4 0.0789952 0.553629 0.0309104
1278 2 0.0937493 0.563234 0.0623819
1155 2 0.0224212 0.485408 0.0321473
1217 4 0.19994 0.49942 0.998171
1174 4 0.222934 0.515586 0.0758958
1173 2 0.255344 0.519725 0.0606365
1175 4 0.287755 0.523863 0.0453782
969 2 0.0319278 0.603515 0.0389378
970 4 0.0587688 0.588976 0.0197387
971 4 0.0050874 0.618054 0.0581383
400 4 0.0218288 0.645082 0.0762986
1386 2 0.150946 0.666329 0.0662534
1387 4 0.161557 0.637655 0.0853761
872 4 0.142411 0.60604 0.0805246
1016 4 0.277188 0.647912 0.0428737
462 2 0.332994 0.645108 0.0590728
1388 4 0.140336 0.695003 0.0471311
1316 4 0.152706 0.712883 0.0187724
1015 4 0.250849 0.712546 0.024696
548 4 0.238124 0.744163 0.0127378
1014 2 0.264018 0.68023 0.0337854
1194 2 0.387829 0.718748 0.0523852
464 4 0.352699 0.670795 0.0431908
1195 4 0.355559 0.703152 0.0563689
1196 4 0.420099 0.734344 0.0484025
1178 4 0.0146851 0.780326 0.0174413
414 2 0.00807347 0.787665 0.0728013
415 4 0.0327459 0.788773 0.0465246
139 4 0.147346 0.821987 0.075637
547 4 0.279036 0.803136 0.0198078
546 2 0.25858 0.77365 0.0162723
1153 4 0.26951 0.835029 0.0128463
138 2 0.126571 0.828418 0.0468718
140 4 0.105796 0.834849 0.0181064
1152 2 0.261694 0.855287 0.041637
1154 4 0.253877 0.875546 0.0704273
1438 4 0.186021 0.959633 0.0574707
1437 2 0.216284 0.941137 0.0509525
1439 4 0.246547 0.922641 0.0444352
614 4 0.461766 0.0586695 0.106563
255 2 0.422368 0.0547012 0.156305
256 4 0.447801 0.0391903 0.135982
623 4 0.0803306 0.127225 0.0835438
622 4 0.0961087 0.111344 0.152103
621 2 0.0882196 0.119284 0.117823
136 4 0.251844 0.0967481 0.166709
1436 4 0.0961399 0.192307 0.131828
1435 4 0.0716523 0.247579 0.0924941
1434 2 0.0838963 0.219943 0.112161
900 2 0.0141041 0.170989 0.136468
902 4 0.0327414 0.141066 0.144065
486 2 0.168044 0.317015 0.0103648
1510 4 0.0973596 0.267587 0.0761437
366 2 0.385332 0.331123 0.120015
368 4 0.414096 0.316885 0.136457
1519 4 0.243903 0.394378 0.160042
874 4 0.324372 0.354659 0.110974
367 4 0.356568 0.345361 0.103574
515 4 0.490997 0.362451 0.141215
514 4 0.439835 0.321515 0.111075
513 2 0.465416 0.341984 0.126145
727 4 0.0885943 0.455712 0.144843
726 2 0.106265 0.45671 0.113424
961 4 0.16652 0.446687 0.161177
1279 4 0.108504 0.57284 0.0938536
1142 4 0.0879969 0.595435 0.111495
7 3 0.192505 0.50619 0.113085
1513 4 0.168133 0.556244 0.152964
871 4 0.179217 0.556743 0.118164
1140 2 0.0660774 0.603847 0.138865
1141 4 0.0441579 0.612261 0.166236
399 2 0.0122585 0.675644 0.0928744
870 2 0.160814 0.581392 0.0993447
1022 4 0.318048 0.587901 0.0930625
1020 2 0.293734 0.589898 0.11962
1021 4 0.269419 0.591895 0.146176
1150 4 0.244392 0.583854 0.175315
463 4 0.313288 0.61942 0.074955
1179 2 0.419741 0.613285 0.16431
1181 4 0.431798 0.635338 0.138452
494 4 0.0356445 0.699193 0.127206
492 2 0.0646595 0.719524 0.133937
401 4 0.00268788 0.706206 0.10945
493 4 0.093673 0.739853 0.140667
313 4 0.408122 0.733931 0.127921
98 4 0.373657 0.736174 0.137675
312 2 0.423592 0.702174 0.135176
314 4 0.439062 0.670419 0.14243
45 3 0.245942 0.793388 0.132319
863 4 0.227254 0.820107 0.1505
41 1 0.277846 0.798728 0.126624
97 4 0.312935 0.749694 0.101185
43 3 0.293601 0.769613 0.121733
44 3 0.291518 0.814907 0.152532
42 3 0.281109 0.817395 0.0993915
96 2 0.343296 0.742934 0.119431
124 4 0.0352689 0.860231 0.0897564
123 2 0.0535396 0.857748 0.120748
125 4 0.0718097 0.855265 0.151739
1293 2 0.306699 0.874876 0.127649
1294 4 0.291388 0.842439 0.12392
1295 4 0.322009 0.907313 0.131377
700 4 0.336814 0.988943 0.0995565
699 2 0.325745 0.9643 0.123443
701 4 0.314676 0.939657 0.14733
135 2 0.237994 0.0668335 0.181327
137 4 0.224144 0.0369186 0.195946
59 4 0.390016 0.0563763 0.209767
257 4 0.396936 0.0702125 0.176628
57 2 0.362509 0.0621583 0.232358
1093 4 0.476331 0.154489 0.205666
1346 4 0.486688 0.12055 0.208314
1092 2 0.489271 0.177989 0.181568
767 4 0.170942 0.318782 0.237839
804 2 0.248892 0.298936 0.23971
806 4 0.260786 0.286289 0.208103
1444 4 0.273191 0.2616 0.186998
1443 2 0.304625 0.279265 0.187507
1445 4 0.336059 0.29693 0.188016
962 4 0.185103 0.435777 0.230005
1518 2 0.248748 0.404449 0.194328
1520 4 0.253594 0.414519 0.228614
1091 4 0.272881 0.382835 0.243057
1089 2 0.308178 0.377287 0.238183
1090 4 0.343476 0.371741 0.233309
1265 4 0.0326165 0.495719 0.219334
960 2 0.175812 0.441231 0.195591
1263 2 0.0605845 0.512853 0.23432
1027 4 0.0805499 0.561946 0.23531
1514 4 0.184742 0.593965 0.212149
1512 2 0.176438 0.575105 0.182556
943 4 0.262404 0.546182 0.258223
1151 4 0.283834 0.564279 0.232436
259 4 0.409762 0.556572 0.178287
1405 4 0.458115 0.520423 0.239428
260 4 0.445574 0.502724 0.210217
258 2 0.427668 0.529648 0.194252
397 4 0.496349 0.611987 0.190634
1149 2 0.264113 0.574067 0.203876
1180 4 0.407684 0.591232 0.190169
467 4 0.110461 0.770207 0.253476
465 2 0.136557 0.792853 0.243155
466 4 0.162654 0.815499 0.232833
862 4 0.175201 0.808414 0.199033
861 2 0.201227 0.814261 0.174767
413 4 0.0644442 0.86545 0.225073
412 4 0.101163 0.845323 0.166351
411 2 0.0828035 0.855386 0.195711
779 4 0.228341 0.960664 0.207832
331 4 0.133877 0.930722 0.26083
777 2 0.261832 0.966092 0.220051
778 4 0.295323 0.971519 0.232269
1394 4 0.43713 0.937804 0.182337
1392 2 0.464494 0.961204 0.184365
1393 4 0.491857 0.984603 0.186394
1508 4 0.081865 0.998736 0.271238
480 2 0.225072 0.00397949 0.325949
481 4 0.250766 0.0291152 0.32885
1073 4 0.285263 0.037194 0.316711
1071 2 0.290169 0.0186252 0.28619
58 4 0.335001 0.0679421 0.254948
73 4 0.350446 0.0350656 0.323048
72 2 0.372021 0.00681505 0.329117
1352 4 0.181551 0.126536 0.33426
1350 2 0.151068 0.128485 0.315093
1351 4 0.120584 0.130434 0.295926
1144 4 0.234024 0.17358 0.331341
1143 2 0.24219 0.158357 0.299686
1102 4 0.206492 0.179051 0.357846
1145 4 0.250355 0.143135 0.268031
1192 4 0.136603 0.186536 0.31894
1191 2 0.123091 0.212388 0.34014
765 2 0.143325 0.324561 0.260296
766 4 0.115709 0.33034 0.282755
805 4 0.236998 0.311585 0.271317
209 4 0.393126 0.308763 0.324406
233 4 0.112281 0.336889 0.320424
132 2 0.385405 0.380611 0.272404
133 4 0.391029 0.385499 0.307687
134 4 0.379781 0.375724 0.237122
1264 4 0.088553 0.529987 0.249307
942 2 0.238117 0.562503 0.279299
1334 4 0.342348 0.547306 0.312161
1404 2 0.482741 0.518289 0.265686
1517 4 0.494333 0.840653 0.474586
1026 2 0.0751919 0.590918 0.256101
1028 4 0.069834 0.619891 0.276892
784 4 0.236045 0.602144 0.318785
944 4 0.21383 0.578824 0.300375
501 2 0.443024 0.655569 0.293327
502 4 0.445796 0.628525 0.317019
503 4 0.440253 0.682614 0.269634
1357 4 0.412144 0.799516 0.256369
1356 2 0.431561 0.778683 0.278491
1358 4 0.450979 0.757851 0.300614
370 4 0.484964 0.766228 0.301885
986 4 0.21827 0.846377 0.294127
984 2 0.20834 0.8474 0.328778
929 4 0.43278 0.892942 0.333958
1507 4 0.113576 0.965984 0.327125
1506 2 0.0977204 0.98236 0.299182
332 4 0.188932 0.968405 0.288228
330 2 0.161405 0.949563 0.274529
482 4 0.199378 0.978844 0.323048
1072 4 0.295074 5.57636e-05 0.255669
74 4 0.393596 0.978564 0.335185
988 4 0.0134865 0.164404 0.380523
1101 2 0.183375 0.168007 0.383224
278 4 0.498202 0.104504 0.377781
276 2 0.467154 0.115048 0.392792
989 4 0.0460556 0.188483 0.320846
987 2 0.0297711 0.176443 0.350685
170 4 0.121571 0.167012 0.405053
1193 4 0.109579 0.238242 0.36134
1103 4 0.160257 0.156964 0.408602
1471 4 0.331795 0.234319 0.43165
18 3 0.392435 0.21279 0.395518
20 3 0.350176 0.193822 0.367178
17 3 0.400151 0.187445 0.348227
16 1 0.379862 0.207697 0.364926
19 3 0.377662 0.236766 0.348493
1440 2 0.0577648 0.269691 0.353269
1441 4 0.0311263 0.281724 0.33215
574 4 0.0464505 0.312716 0.339646
1330 4 0.0102695 0.955062 0.486575
1442 4 0.0844027 0.257658 0.374388
208 4 0.32272 0.321652 0.333274
207 2 0.357923 0.315208 0.32884
990 2 0.338195 0.29759 0.406077
991 4 0.327982 0.309951 0.373777
573 2 0.0176749 0.333956 0.34426
231 2 0.121691 0.370476 0.329579
786 2 0.113884 0.405871 0.407362
232 4 0.131101 0.404062 0.338734
787 4 0.116823 0.397347 0.372445
241 4 0.0898765 0.544756 0.382323
240 2 0.0853406 0.579134 0.392222
1332 2 0.355552 0.549074 0.345672
1333 4 0.368755 0.550841 0.379183
350 4 0.404433 0.504988 0.394319
1061 4 0.440254 0.545012 0.41422
1322 4 0.44003 0.558653 0.378004
242 4 0.0808044 0.613511 0.402122
783 2 0.21449 0.605273 0.347525
785 4 0.192937 0.608403 0.376266
1321 4 0.418095 0.611964 0.334662
1320 2 0.429063 0.585309 0.356332
1238 4 0.409309 0.746057 0.354251
1236 2 0.37368 0.741596 0.357584
704 4 0.373318 0.76746 0.457497
1372 4 0.490264 0.716723 0.389813
985 4 0.198409 0.848423 0.36343
1237 4 0.338051 0.737136 0.360918
417 2 0.409013 0.827184 0.422562
103 4 0.17215 0.874276 0.365139
102 2 0.190301 0.897141 0.386308
444 2 0.48155 0.851277 0.358279
418 4 0.440518 0.82245 0.405668
445 4 0.45951 0.84094 0.384883
833 4 0.0422109 0.936804 0.391823
831 2 0.0713466 0.949194 0.37456
832 4 0.100481 0.961582 0.357296
1375 4 0.149006 0.943669 0.387371
1374 2 0.15817 0.964579 0.359458
1376 4 0.167333 0.98549 0.331544
927 2 0.435959 0.928802 0.33605
928 4 0.439138 0.964662 0.338142
280 4 0.203909 0.0517054 0.43189
1218 2 0.368792 0.0195426 0.496734
1219 4 0.392631 0.013122 0.470451
281 4 0.155421 0.103623 0.444343
169 4 0.122909 0.10385 0.439841
168 2 0.12224 0.135431 0.422447
279 2 0.179665 0.0776644 0.438116
277 4 0.436107 0.125593 0.407803
1095 2 0.102309 0.22835 0.429872
1097 4 0.121719 0.199279 0.421013
509 4 0.231323 0.245433 0.452157
1470 2 0.297829 0.229962 0.442951
1472 4 0.263863 0.225604 0.454253
744 2 0.355185 0.82495 0.479941
1310 4 0.0883051 0.278656 0.482212
1096 4 0.0828981 0.257422 0.43873
507 2 0.218024 0.278913 0.450521
508 4 0.204724 0.312391 0.448885
992 4 0.348408 0.285229 0.438378
829 4 0.29083 0.305609 0.475268
788 4 0.110946 0.414394 0.442277
1349 4 0.355882 0.371646 0.462495
1347 2 0.362001 0.38666 0.494706
1221 2 0.00887393 0.838237 0.454256
348 2 0.402985 0.491035 0.427539
349 4 0.401537 0.477082 0.46076
104 4 0.208453 0.920006 0.407477
1126 4 0.331464 0.478423 0.491423
283 4 0.403914 0.542174 0.409876
282 2 0.397929 0.569924 0.432116
1059 2 0.471681 0.539622 0.431062
702 2 0.396781 0.758314 0.483308
472 4 0.492637 0.525307 0.480463
1010 4 0.181643 0.608054 0.429534
1008 2 0.157047 0.634032 0.424999
578 4 0.244978 0.669184 0.421525
576 2 0.266392 0.652232 0.445072
577 4 0.287807 0.635282 0.46862
716 4 0.373055 0.621609 0.479001
284 4 0.391943 0.597672 0.454356
1009 4 0.132451 0.66001 0.420464
543 2 0.241305 0.749294 0.43995
1047 2 0.316784 0.705321 0.448947
544 4 0.252608 0.719619 0.457038
1048 4 0.300262 0.676328 0.46262
1049 4 0.333304 0.734312 0.435274
1223 4 0.02936 0.816754 0.433781
545 4 0.230001 0.77897 0.422862
491 4 0.22657 0.807305 0.439302
489 2 0.213656 0.816173 0.471782
745 4 0.347826 0.811422 0.447334
419 4 0.37751 0.831917 0.439457
247 4 0.308851 0.562045 0.495155
997 4 0.298185 0.653485 0.499169
1216 4 0.129745 0.5146 0.00479439
1156 4 0.0392675 0.492347 0.00102663
69 2 0.295847 0.996809 0.55323
70 4 0.330676 0.00615757 0.553113
71 4 0.261019 0.98746 0.553347
1391 4 0.363919 0.99982 0.569519
1389 2 0.390296 0.0238182 0.57488
1220 4 0.344951 0.0259628 0.523018
1490 4 0.489561 0.00861965 0.509632
1076 4 0.317092 0.158039 0.584155
1074 2 0.289432 0.135243 0.588114
1075 4 0.261771 0.112447 0.592073
903 2 0.386756 0.179858 0.54132
904 4 0.418116 0.166341 0.552906
553 4 0.00909622 0.243915 0.556012
115 4 0.205926 0.232538 0.525458
905 4 0.355396 0.193376 0.529734
1309 4 0.0408053 0.320386 0.51691
1024 4 0.140662 0.314676 0.584677
114 2 0.222516 0.260659 0.540769
116 4 0.239113 0.288773 0.556075
667 4 0.261071 0.316764 0.575838
830 4 0.254974 0.321078 0.535902
828 2 0.272904 0.313343 0.505587
864 2 0.375459 0.317323 0.576529
865 4 0.393592 0.28677 0.570356
566 4 0.0232225 0.406789 0.542947
826 4 0.163038 0.334504 0.522992
825 2 0.193282 0.33024 0.542163
827 4 0.223529 0.325987 0.56133
272 4 0.253145 0.353725 0.5609
270 2 0.253456 0.383291 0.540242
866 4 0.357327 0.347876 0.582703
1348 4 0.368119 0.401674 0.526917
290 4 0.49582 0.390054 0.506885
564 2 0.0125696 0.441211 0.541502
565 4 0.00191682 0.475632 0.540058
271 4 0.253767 0.412851 0.51959
1125 2 0.308557 0.455989 0.507929
1127 4 0.28565 0.433555 0.524435
246 2 0.327295 0.532621 0.504873
1115 4 0.474332 0.338561 0.944502
951 2 0.427412 0.523574 0.565099
953 4 0.395582 0.50691 0.568185
952 4 0.459243 0.540239 0.562012
1158 2 0.0710982 0.661835 0.552354
1105 4 0.177372 0.664162 0.553331
337 4 0.204874 0.646113 0.565674
996 2 0.304129 0.619918 0.510929
1113 2 0.496558 0.311437 0.936091
998 4 0.310074 0.58635 0.522688
715 4 0.395409 0.62813 0.547261
714 2 0.384232 0.624869 0.513131
496 4 0.0630459 0.750975 0.547965
1159 4 0.0532224 0.660444 0.521067
1104 2 0.147644 0.683236 0.546062
1106 4 0.117915 0.702309 0.538793
497 4 0.112984 0.720031 0.506131
495 2 0.0880144 0.735503 0.527048
698 4 0.0300548 0.82654 0.546957
696 2 0.0365762 0.793385 0.559552
490 4 0.200742 0.825041 0.504262
210 2 0.174313 0.79542 0.553355
211 4 0.182161 0.800584 0.518539
995 4 0.488187 0.754989 0.563451
993 2 0.471692 0.76248 0.532271
703 4 0.420245 0.749167 0.509119
746 4 0.362545 0.838477 0.512549
1498 4 0.495295 0.84376 0.569876
1516 4 0.493579 0.868515 0.541106
1407 2 0.0397007 0.95542 0.53969
1409 4 0.0446503 0.968155 0.573063
1408 4 0.0347517 0.942685 0.506317
648 2 0.15325 0.00469904 0.55607
649 4 0.12463 0.00971057 0.57743
650 4 0.181869 0.999688 0.534712
119 4 0.105521 0.993382 0.679428
1241 4 0.208697 0.0145377 0.646384
1390 4 0.416674 0.0478163 0.580241
185 4 0.421995 0.00360731 0.659685
1109 4 0.436495 0.0448297 0.613594
1107 2 0.444976 0.0798719 0.614269
141 2 0.0358039 0.0982333 0.630235
142 4 0.0175018 0.0882716 0.600804
1343 4 0.418836 0.118486 0.664065
1137 2 0.460246 0.149902 0.641048
1138 4 0.429502 0.133885 0.631114
1108 4 0.453458 0.114915 0.614945
1139 4 0.49099 0.165919 0.650982
380 4 0.19559 0.168171 0.657073
379 4 0.184023 0.235321 0.633435
378 2 0.189807 0.201746 0.645254
293 4 0.303131 0.175904 0.640022
291 2 0.280477 0.159774 0.662981
894 2 0.376994 0.214419 0.653541
895 4 0.379982 0.211277 0.617742
1023 2 0.104675 0.31453 0.582361
1025 4 0.0686884 0.314383 0.580044
680 4 0.227742 0.301745 0.593703
679 4 0.182092 0.270505 0.639963
678 2 0.204919 0.286131 0.61683
668 4 0.291767 0.256312 0.600424
666 2 0.27641 0.286536 0.588133
743 4 0.40996 0.260949 0.661911
999 2 0.361333 0.321448 0.665421
1001 4 0.353224 0.292179 0.645981
742 4 0.449895 0.315269 0.636294
741 2 0.429927 0.288109 0.649102
1257 2 0.235668 0.365504 0.623654
1259 4 0.234724 0.389018 0.65098
1258 4 0.236606 0.342003 0.596329
161 4 0.276357 0.350104 0.594
159 2 0.309427 0.364413 0.592463
160 4 0.342492 0.378723 0.590926
1000 4 0.369443 0.350718 0.684862
1415 4 0.36533 0.380177 0.66241
1413 2 0.394893 0.391436 0.645099
978 2 0.0668252 0.444015 0.646858
979 4 0.0790049 0.419497 0.623386
1414 4 0.424455 0.402698 0.62779
965 4 0.28451 0.999979 0.937012
55 4 0.0714187 0.543955 0.654437
1201 4 0.210208 0.529035 0.645958
1160 4 0.0889744 0.663226 0.583643
336 2 0.217947 0.661144 0.595734
964 4 0.271288 0.929444 0.929827
1383 2 0.0319934 0.748605 0.638543
1385 4 0.0344788 0.74496 0.602753
562 4 0.0969948 0.667622 0.625117
561 2 0.0998986 0.703565 0.625405
563 4 0.102803 0.739507 0.625693
338 4 0.231018 0.676173 0.625795
772 4 0.483958 0.677198 0.630058
697 4 0.0430964 0.76023 0.572147
268 4 0.00700369 0.810684 0.596517
203 4 0.128884 0.822394 0.635172
201 2 0.155008 0.79833 0.628939
1339 4 0.103727 0.815976 0.610448
212 4 0.166464 0.790255 0.588171
202 4 0.181132 0.774266 0.622708
1019 4 0.371741 0.776358 0.622276
1017 2 0.404742 0.775167 0.636765
1018 4 0.437744 0.773976 0.651253
756 2 0.48642 0.7586 0.610318
757 4 0.460198 0.752551 0.634323
1338 2 0.086534 0.845441 0.62214
1340 4 0.069341 0.874905 0.633831
583 4 0.216742 0.832787 0.651408
582 2 0.251213 0.843186 0.649396
740 4 0.479134 0.869494 0.644347
963 2 0.2779 0.964712 0.933419
640 4 0.17886 0.936175 0.973883
118 4 0.103843 0.998317 0.607494
117 2 0.104682 0.995849 0.643461
1134 2 0.243821 0.980408 0.617162
1135 4 0.251085 0.968917 0.583761
1136 4 0.236558 0.9919 0.650563
143 4 0.0541064 0.108195 0.659666
669 2 0.0975641 0.0689259 0.676992
671 4 0.110734 0.0353859 0.675549
815 4 0.151917 0.0817587 0.73081
813 2 0.171758 0.0538745 0.742176
1239 2 0.218071 0.0285052 0.678281
1240 4 0.227446 0.0424731 0.710179
835 4 0.246173 0.0729728 0.723169
834 2 0.277381 0.0606709 0.736399
836 4 0.30859 0.0483702 0.74963
184 4 0.4021 0.0632939 0.694946
183 2 0.412048 0.0334509 0.677316
670 4 0.084394 0.102466 0.678436
197 4 0.0871745 0.0631914 0.761501
305 4 0.215607 0.147825 0.690113
303 2 0.198422 0.12655 0.713619
304 4 0.181237 0.105275 0.737124
292 4 0.257823 0.143645 0.685939
1282 4 0.34857 0.139914 0.710892
1341 2 0.387484 0.114926 0.681524
1342 4 0.356132 0.111365 0.69898
51 2 0.0150961 0.175446 0.747735
53 4 0.0158223 0.186553 0.713436
896 4 0.374006 0.217561 0.689341
1427 4 0.402718 0.227802 0.710401
1425 2 0.411962 0.224271 0.745078
1283 4 0.347502 0.211986 0.713321
1281 2 0.348036 0.175949 0.712107
475 4 0.216193 0.394014 0.68057
474 2 0.199545 0.383348 0.710727
690 2 0.482228 0.413555 0.729569
980 4 0.0546455 0.468533 0.67033
49 3 0.080191 0.49124 0.679877
691 4 0.48893 0.437062 0.703056
48 3 0.0758711 0.510892 0.730863
47 3 0.086641 0.544199 0.689474
46 1 0.0919232 0.51379 0.701642
50 3 0.124165 0.509363 0.706079
1202 4 0.154464 0.50591 0.68545
1200 2 0.182336 0.517473 0.665704
54 2 0.0861146 0.576877 0.655216
56 4 0.10081 0.609798 0.655995
194 4 0.0948116 0.64141 0.673047
192 2 0.0872717 0.669465 0.694414
193 4 0.0797325 0.697519 0.715781
1384 4 0.0295074 0.752249 0.674333
86 4 0.158897 0.763222 0.740615
84 2 0.165994 0.750228 0.707734
146 4 0.179027 0.730372 0.743313
85 4 0.173091 0.737234 0.674852
739 4 0.488307 0.828635 0.703067
1411 4 0.0478015 0.879908 0.744818
584 4 0.285682 0.853586 0.647383
239 4 0.322011 0.888673 0.74244
237 2 0.336829 0.894568 0.710098
238 4 0.351648 0.900463 0.677755
738 2 0.483719 0.849065 0.673707
607 4 0.066303 0.904874 0.767285
227 4 0.212363 0.998443 0.742717
435 2 0.436473 0.968237 0.709248
437 4 0.450773 0.979651 0.678173
436 4 0.422171 0.956824 0.740322
722 4 0.147096 0.0154551 0.788672
814 4 0.191599 0.0259901 0.753543
52 4 0.0143708 0.164338 0.782036
195 2 0.0637531 0.0904185 0.758245
196 4 0.0403327 0.117645 0.75499
949 4 0.37491 0.149281 0.813697
879 2 0.0490655 0.230244 0.797681
881 4 0.0354467 0.198424 0.787558
941 4 0.200953 0.222384 0.764801
939 2 0.166965 0.217151 0.775655
948 2 0.379604 0.181321 0.829565
1426 4 0.421204 0.22074 0.779755
880 4 0.0626843 0.262062 0.807805
849 2 0.0383161 0.36342 0.83434
850 4 0.0537726 0.389906 0.815366
694 4 0.152877 0.358803 0.796749
693 2 0.152049 0.345503 0.830258
476 4 0.182896 0.372681 0.740884
718 4 0.347341 0.341639 0.822873
712 4 0.42433 0.396753 0.833766
1396 4 0.0743275 0.475273 0.813022
1395 2 0.104807 0.479581 0.794239
1397 4 0.135288 0.483891 0.775456
1276 4 0.162581 0.50893 0.762272
1275 2 0.179992 0.532371 0.783431
1277 4 0.197401 0.555814 0.804591
795 2 0.113174 0.656841 0.815293
178 4 0.173278 0.644294 0.807079
797 4 0.0815542 0.640518 0.821136
179 4 0.196147 0.583742 0.775261
177 2 0.184713 0.614017 0.79117
878 4 0.0165397 0.715502 0.812954
1307 4 0.0537893 0.723863 0.825462
796 4 0.144795 0.673164 0.80945
145 4 0.182393 0.682631 0.797271
144 2 0.180712 0.706501 0.770291
1305 2 0.0710577 0.75499 0.819689
605 4 0.122113 0.784062 0.824211
1306 4 0.0883259 0.786117 0.813917
603 2 0.133117 0.808693 0.800281
1412 4 0.0163731 0.856065 0.805196
1410 2 0.0320869 0.867986 0.775007
604 4 0.144122 0.833323 0.776351
968 4 0.253732 0.902713 0.805557
966 2 0.279662 0.886362 0.786567
967 4 0.305593 0.87001 0.767577
606 2 0.0842908 0.934905 0.775942
608 4 0.102279 0.964937 0.784598
721 4 0.0962847 0.973098 0.817411
720 2 0.121691 0.994277 0.803041
225 2 0.243308 0.98375 0.753983
226 4 0.274253 0.969057 0.76525
527 4 0.341758 0.981158 0.834001
751 4 0.451721 0.941851 0.752049
750 2 0.434884 0.934901 0.783172
752 4 0.418046 0.927953 0.814295
526 4 0.280807 0.0105756 0.858926
301 4 0.28884 0.0473482 0.871001
300 2 0.298198 0.0765715 0.889945
266 4 0.37787 0.997606 0.831982
167 4 0.00484353 0.0782949 0.887676
302 4 0.307556 0.105794 0.90889
940 4 0.132977 0.211917 0.78651
789 2 0.0689332 0.215967 0.91108
790 4 0.0691003 0.180462 0.904768
950 4 0.384298 0.213361 0.845433
791 4 0.0687662 0.251471 0.917393
735 2 0.0432039 0.295134 0.897081
736 4 0.0307161 0.303507 0.864304
695 4 0.151221 0.332203 0.863766
29 3 0.135271 0.298082 0.866591
26 1 0.154052 0.300755 0.894159
30 3 0.178576 0.278926 0.893172
935 4 0.396971 0.299064 0.849571
933 2 0.416561 0.328962 0.844808
851 4 0.0228592 0.336934 0.853314
717 2 0.335297 0.369882 0.841786
719 4 0.323253 0.398125 0.860699
711 2 0.450521 0.417131 0.847878
934 4 0.436151 0.358861 0.840046
1131 2 0.486654 0.408121 0.916094
428 4 0.163015 0.478147 0.919519
559 4 0.383968 0.419485 0.904799
558 2 0.387133 0.454957 0.910468
1132 4 0.492607 0.436036 0.894055
713 4 0.476713 0.437508 0.861991
780 2 0.0231838 0.572455 0.856559
781 4 0.0497577 0.549375 0.864407
1225 4 0.364963 0.564249 0.877336
1211 4 0.412612 0.516022 0.906669
1209 2 0.402059 0.539238 0.881173
1210 4 0.391506 0.562454 0.855677
994 4 0.455196 0.769971 0.50109
597 2 0.270146 0.645704 0.891446
599 4 0.249376 0.635804 0.86368
1224 2 0.360602 0.596549 0.861904
1226 4 0.35624 0.628848 0.846473
1243 4 0.378482 0.649342 0.865191
1167 2 0.0565944 0.719473 0.905677
1168 4 0.0833733 0.707435 0.884739
645 2 0.137469 0.733944 0.895452
647 4 0.10222 0.737798 0.888894
646 4 0.172719 0.730089 0.90201
598 4 0.290916 0.655604 0.919212
1244 4 0.332974 0.705267 0.866934
1242 2 0.355728 0.677304 0.866063
339 2 0.461438 0.715647 0.905952
340 4 0.468193 0.72003 0.870801
130 4 0.408036 0.787961 0.891034
129 2 0.437177 0.801293 0.874498
869 4 0.119713 0.890575 0.892406
919 4 0.472433 0.853093 0.862004
131 4 0.466318 0.814626 0.85796
1256 4 0.0653203 0.966922 0.869071
1254 2 0.0893257 0.940018 0.868567
1255 4 0.113331 0.913113 0.868063
525 2 0.311282 0.995866 0.846463
264 2 0.388753 0.993596 0.866128
1400 4 0.483038 0.950271 0.890297
265 4 0.399635 0.989585 0.900273
1399 4 0.424679 0.927234 0.854734
1398 2 0.45386 0.938754 0.872516
1461 2 0.166378 0.994395 0.943109
1463 4 0.20213 0.996209 0.938761
630 2 0.479605 0.0716527 0.973407
631 4 0.48724 0.0737558 0.938226
794 4 0.0279068 0.231214 0.948913
792 2 0.0309801 0.211639 0.979043
737 4 0.0556907 0.286761 0.929859
1204 4 0.0192842 0.29883 0.92937
846 2 0.0685559 0.31077 0.971966
847 4 0.0770011 0.277715 0.983645
28 3 0.135241 0.295574 0.921347
344 4 0.207138 0.275725 0.967048
27 3 0.166733 0.33138 0.895568
342 2 0.238614 0.281549 0.950441
487 4 0.175714 0.290038 0.987696
1133 4 0.480698 0.380206 0.938134
674 4 0.28435 0.312719 0.961185
343 4 0.27009 0.287375 0.933836
672 2 0.284467 0.336103 0.988637
848 4 0.0601111 0.343826 0.960287
1162 4 0.101478 0.418933 0.979718
447 2 0.119227 0.375912 0.945289
449 4 0.127652 0.410127 0.952957
448 4 0.110802 0.341697 0.937622
253 4 0.401325 0.376313 0.975328
845 4 0.494253 0.167485 0.551632
1161 2 0.104838 0.45292 0.991295
560 4 0.390297 0.49043 0.916139
808 4 0.0360442 0.580821 0.949251
248 4 0.34574 0.503196 0.514591
809 4 0.0699575 0.540873 0.899696
807 2 0.0530015 0.560847 0.924474
427 4 0.205062 0.534996 0.933732
426 2 0.184038 0.506572 0.926624
1177 4 0.0392386 0.754003 0.954946
1169 4 0.0298159 0.731512 0.926615
1315 4 0.115231 0.713195 0.957151
1314 2 0.133968 0.713039 0.987962
341 4 0.454683 0.711264 0.941103
1176 2 0.026962 0.767165 0.986194
128 4 0.387271 0.822617 0.976023
126 2 0.403178 0.819631 0.943798
127 4 0.419086 0.816644 0.911573
868 4 0.153221 0.921284 0.948406
867 2 0.136467 0.90593 0.920405
641 4 0.233139 0.9213 0.928782
1462 4 0.130626 0.992581 0.947457
639 2 0.205999 0.928738 0.951333
981 2 0.00814224 0.201333 0.670623
983 4 0.0047385 0.181933 0.640416
106 4 0.499014 0.433508 0.597244
982 4 0.0115456 0.220732 0.700831
692 4 0.475527 0.390048 0.756082
1515 2 0.493956 0.854584 0.507846
252 2 0.428885 0.382558 0.99773
1308 2 0.0645547 0.299522 0.499561
749 4 0.685177 0.0738959 0.0675203
68 4 0.714419 0.0578211 0.079776
66 2 0.711259 0.0268698 0.0980096
221 4 0.88789 0.0640711 0.0576004
1130 4 0.57061 0.117604 0.0440498
1128 2 0.575981 0.104993 0.0106949
1274 4 0.574635 0.143884 0.0705965
747 2 0.673631 0.108009 0.065674
439 4 0.733944 0.0927368 0.0376316
219 2 0.868562 0.0870713 0.037655
220 4 0.849235 0.110071 0.0177077
626 4 0.921303 0.0594716 0.0660426
468 2 0.813012 0.227183 0.0385029
469 4 0.777361 0.225933 0.0332239
470 4 0.848663 0.228433 0.0437823
1247 4 0.931637 0.267864 0.0693502
593 4 0.554117 0.334777 0.063133
586 4 0.767641 0.323909 0.0317702
585 2 0.761765 0.288542 0.0278823
587 4 0.755889 0.253176 0.0239942
158 4 0.796147 0.329861 0.00707128
1245 2 0.94733 0.270476 0.0369879
1246 4 0.963024 0.273088 0.00462593
1505 4 0.585684 0.344459 0.0608815
320 4 0.525406 0.393777 0.0453501
1503 2 0.571661 0.377285 0.0557572
394 4 0.533884 0.387653 0.00791213
1504 4 0.55764 0.41011 0.0506331
308 4 0.646217 0.417949 0.0457034
1301 4 0.739415 0.324243 0.0595439
306 2 0.66694 0.390652 0.0569207
307 4 0.687662 0.363354 0.0681381
156 2 0.821482 0.352407 0.0193273
157 4 0.846817 0.374953 0.0315844
311 4 0.636834 0.429236 0.0123889
1031 4 0.89863 0.454075 0.00412731
1419 2 0.955385 0.444627 0.0474342
1421 4 0.924794 0.440132 0.0288755
1420 4 0.985975 0.449121 0.0659929
1251 2 0.656328 0.533235 0.0781515
1253 4 0.675105 0.514874 0.0534394
1043 4 0.701975 0.566062 0.0615652
1041 2 0.716839 0.598595 0.066149
1042 4 0.731703 0.631129 0.0707319
610 4 0.793911 0.634387 0.0116045
609 2 0.769887 0.609919 0.000439252
442 4 0.677287 0.782389 0.0212418
441 2 0.703848 0.782971 0.0456261
443 4 0.730409 0.783552 0.0700106
1480 4 0.764093 0.790179 0.0855555
387 2 0.593175 0.915884 0.0607313
389 4 0.566411 0.905284 0.0390138
388 4 0.61994 0.926483 0.08245
67 4 0.708097 0.995919 0.116243
120 2 0.691769 0.946613 0.0756999
121 4 0.699422 0.932235 0.0435268
171 2 0.824183 0.982321 0.0287549
173 4 0.799981 0.00179237 0.0104378
172 4 0.848385 0.962849 0.0470721
408 2 0.529231 0.02458 0.160268
409 4 0.538411 0.0582974 0.151364
187 4 0.59465 0.999017 0.0894327
653 4 0.723179 0.0517601 0.136871
223 4 0.90644 0.0754467 0.156113
82 4 0.887523 0.0401723 0.17118
81 2 0.909025 0.0120483 0.164316
625 4 0.932503 0.0884359 0.131135
624 2 0.926903 0.0739539 0.0985889
1272 2 0.559228 0.148654 0.10285
1273 4 0.543821 0.153424 0.135104
748 4 0.662086 0.142122 0.0638292
224 4 0.864257 0.1336 0.162475
222 2 0.885348 0.104524 0.159294
901 4 0.995467 0.200911 0.128873
1260 2 0.523759 0.235792 0.113801
1099 4 0.68699 0.751268 0.0049447
1261 4 0.552303 0.244044 0.0933665
591 2 0.561746 0.304572 0.0812952
592 4 0.569375 0.274367 0.099458
945 2 0.654114 0.276702 0.155199
1299 2 0.710884 0.313816 0.0789793
946 4 0.677484 0.287699 0.130033
1300 4 0.682354 0.303389 0.0984134
731 4 0.691483 0.447237 0.165484
1252 4 0.63755 0.551597 0.102863
398 4 0.546001 0.612914 0.138332
396 2 0.521175 0.612451 0.164483
362 4 0.721877 0.592326 0.141342
360 2 0.733253 0.615608 0.166421
111 2 0.540916 0.734711 0.15409
113 4 0.573404 0.723439 0.143232
1479 2 0.774239 0.789387 0.120152
1481 4 0.784384 0.788595 0.154747
416 4 0.983402 0.786557 0.0990784
403 4 0.627263 0.883079 0.146411
1453 4 0.901626 0.912352 0.1308
1454 4 0.831906 0.899268 0.143819
1452 2 0.866766 0.90581 0.13731
188 4 0.5235 0.988763 0.0835895
186 2 0.559075 0.99389 0.0865116
732 2 0.653917 0.991448 0.137525
122 4 0.684116 0.960992 0.107873
734 4 0.66954 0.0176834 0.11834
230 4 0.770057 0.970585 0.162249
83 4 0.930527 0.983925 0.157452
1345 4 0.53271 0.070107 0.185095
1080 2 0.610018 0.0110894 0.204757
1082 4 0.623259 0.0245074 0.235499
652 4 0.715114 0.0753171 0.20456
651 2 0.719146 0.0635384 0.170716
358 4 0.775188 0.0098852 0.260149
75 2 0.903019 0.0646261 0.231925
76 4 0.93354 0.0703133 0.213581
1344 2 0.509699 0.0953285 0.196705
62 4 0.784428 0.161666 0.20203
60 2 0.805293 0.134458 0.190861
61 4 0.826158 0.107248 0.179691
206 4 0.976805 0.196448 0.164265
1148 4 0.624311 0.245524 0.210755
1146 2 0.650692 0.246205 0.23533
1147 4 0.677075 0.246886 0.259905
352 4 0.95269 0.220085 0.236813
204 2 0.9682 0.189507 0.19859
205 4 0.959595 0.182566 0.232915
947 4 0.630743 0.265704 0.180363
454 4 0.551974 0.414035 0.196958
1422 2 0.616933 0.34057 0.227895
1423 4 0.586639 0.350704 0.24463
1424 4 0.647227 0.330436 0.211161
373 4 0.674251 0.355473 0.208233
453 2 0.584651 0.429204 0.195372