ITEM: TIMESTEP
629500
ITEM: NUMBER OF ATOMS
1520
ITEM: BOX BOUNDS pp pp pp
-6.9326749999999997e+00 6.9326749999999997e+00
-6.9326749999999997e+00 6.9326749999999997e+00
-6.9326749999999997e+00 6.9326749999999997e+00
ITEM: ATOMS id type xs ys zs
1327 4 0.320952 0.0155425 0.0682058
420 2 0.320156 0.06478 0.033519
422 4 0.315022 0.0291102 0.0348244
1204 4 0.33716 0.00958754 0.0133483
1178 4 0.49781 0.0751915 0.00949631
38 3 0.11853 0.118999 0.0602771
421 4 0.325291 0.100451 0.0322138
736 4 0.341203 0.138193 0.0256021
735 2 0.373335 0.125059 0.0158307
737 4 0.405466 0.111925 0.00605932
1176 2 0.488426 0.110011 0.00947989
1177 4 0.479041 0.144829 0.00946332
993 2 0.0665688 0.201115 0.0405837
995 4 0.0325927 0.189297 0.0380595
963 2 0.173005 0.233828 0.00784959
994 4 0.100545 0.212934 0.0431072
964 4 0.175823 0.226112 0.0429628
1057 4 0.00394553 0.8775 0.371637
489 2 0.493786 0.504824 0.290405
992 4 0.156874 0.368109 0.073872
991 4 0.225114 0.35248 0.0912133
990 2 0.190994 0.360295 0.0825428
1319 4 0.247838 0.395247 0.0250739
1159 4 0.324062 0.354412 0.0538332
566 4 0.260535 0.365526 0.0398098
1160 4 0.383415 0.342751 0.014554
1158 2 0.353739 0.348581 0.0341935
1248 2 0.46571 0.38704 0.0150503
1249 4 0.471928 0.352689 0.0240918
1184 4 0.00446997 0.451518 0.0803688
1317 2 0.216168 0.411381 0.0189827
1318 4 0.184498 0.427515 0.0128911
259 4 0.277427 0.433261 0.0706024
258 2 0.291316 0.463821 0.0574283
122 4 0.442978 0.523007 0.0108483
1250 4 0.459492 0.421391 0.00600852
175 4 0.00732438 0.569396 0.0531232
583 4 0.231573 0.573479 0.0521103
582 2 0.247206 0.54818 0.0317147
530 4 0.345063 0.500562 0.0487696
584 4 0.262839 0.522881 0.0113189
260 4 0.305205 0.494382 0.0442537
528 2 0.339897 0.50893 0.0140752
1156 4 0.314468 0.568713 0.0451873
120 2 0.439118 0.542363 0.0410289
121 4 0.435258 0.56172 0.0712094
1301 4 0.323986 0.642664 0.0154855
1155 2 0.304063 0.601928 0.03576
1157 4 0.293658 0.635144 0.0263334
221 4 0.469311 0.619377 0.0185057
86 4 0.238304 0.751293 0.00260122
1364 4 0.315759 0.711618 0.0580114
1362 2 0.312734 0.682659 0.0792868
911 4 0.0983874 0.739336 0.0924155
389 4 0.157631 0.790844 0.0902652
388 4 0.174115 0.802118 0.0209625
387 2 0.165873 0.796481 0.0556139
233 4 0.264669 0.782771 0.0801103
392 4 0.473069 0.802757 0.0841514
771 2 0.189076 0.891397 0.093069
773 4 0.195765 0.905081 0.0603812
319 4 0.32903 0.842918 0.0218602
318 2 0.343961 0.866854 0.0443223
320 4 0.358892 0.890789 0.066785
1165 4 0.493548 0.881939 0.0237726
1164 2 0.464716 0.875935 0.0445828
733 4 0.495482 0.842363 0.0159131
1166 4 0.435884 0.869931 0.0653927
289 4 0.0565262 0.946901 0.0168259
291 2 0.0500521 0.99561 0.055431
292 4 0.0541753 0.983232 0.0218127
407 4 0.198804 0.93192 0.0284787
405 2 0.223882 0.914252 0.00952155
1326 2 0.290845 0.995928 0.0651619
1328 4 0.260739 0.976313 0.0621178
1203 2 0.349324 0.975724 0.0109593
1205 4 0.361488 0.94186 0.00856977
1045 4 0.214981 0.0164389 0.155674
1044 2 0.189603 0.990865 0.15719
1444 4 0.243794 0.0275583 0.133373
1443 2 0.262955 0.0575303 0.127459
532 4 0.419969 0.0192771 0.127025
39 3 0.134823 0.162145 0.0899007
37 3 0.0881315 0.137097 0.101347
36 1 0.119279 0.132524 0.0908782
40 3 0.134828 0.112388 0.111653
1445 4 0.282115 0.0875024 0.121546
1201 4 0.334303 0.163157 0.120498
1244 4 0.340601 0.137528 0.149868
1028 4 0.40191 0.149356 0.132766
1026 2 0.422893 0.157339 0.104546
101 4 0.00923717 0.2113 0.126517
1200 2 0.338173 0.177006 0.087427
1202 4 0.342042 0.190854 0.0543565
1027 4 0.443877 0.165322 0.0763257
1484 4 0.427219 0.214964 0.0831633
506 4 0.0104949 0.292991 0.13509
142 4 0.0425002 0.306315 0.127523
141 2 0.0738379 0.300772 0.144483
145 4 0.327598 0.26014 0.167607
144 2 0.31802 0.294887 0.166461
1483 4 0.471932 0.270021 0.0962424
1482 2 0.449576 0.242492 0.0897026
1352 4 0.163089 0.381492 0.181734
1350 2 0.162669 0.405533 0.154859
341 4 0.346693 0.374967 0.0777885
339 2 0.316303 0.392633 0.0858339
161 4 0.00272489 0.461079 0.139195
1351 4 0.16225 0.429574 0.127984
829 4 0.169189 0.452947 0.152656
340 4 0.285912 0.410299 0.0938788
721 4 0.333518 0.470584 0.14268
720 2 0.334789 0.504094 0.155942
767 4 0.481855 0.498483 0.152398
1239 2 0.466459 0.583794 0.12822
1240 4 0.465773 0.586865 0.164144
1241 4 0.467144 0.580724 0.0922961
109 4 0.049372 0.631026 0.163416
551 4 0.267118 0.583994 0.130619
549 2 0.244152 0.602282 0.151561
1363 4 0.30971 0.6537 0.100562
1340 4 0.0201607 0.767477 0.105694
232 4 0.277665 0.734019 0.131647
595 4 0.380014 0.735084 0.15642
910 4 0.0824132 0.809597 0.0955503
909 2 0.0904003 0.774466 0.0939831
231 2 0.271166 0.758395 0.105878
774 2 0.331463 0.814429 0.138347
775 4 0.330836 0.836035 0.109483
391 4 0.466671 0.777718 0.151485
390 2 0.46987 0.790237 0.117818
1394 4 0.033587 0.858417 0.106521
1392 2 0.0600982 0.882679 0.103534
1393 4 0.0866093 0.906941 0.100546
772 4 0.182388 0.877715 0.125756
348 2 0.366615 0.910873 0.104548
350 4 0.334921 0.895922 0.096039
293 4 0.0459285 0.00798747 0.0890494
1207 4 0.00500008 0.932703 0.140423
1206 2 0.0300138 0.936327 0.166145
1046 4 0.164224 0.965291 0.158707
349 4 0.398308 0.925825 0.113056
533 4 0.384627 0.961055 0.103303
531 2 0.402298 0.990166 0.115164
746 4 0.438971 0.000761777 0.147135
12 3 0.0661668 0.0698283 0.223636
543 2 0.372004 0.0669943 0.242682
47 3 0.387586 0.996802 0.238523
1243 4 0.365367 0.0788274 0.18367
14 3 0.0973242 0.112071 0.23717
314 4 0.238494 0.119585 0.215537
312 2 0.26874 0.136298 0.205229
544 4 0.350222 0.0749849 0.215075
1242 2 0.352984 0.108177 0.166769
313 4 0.298987 0.15301 0.194922
143 4 0.105175 0.29523 0.161443
146 4 0.308441 0.329634 0.165316
53 4 0.303377 0.326889 0.205848
51 2 0.305311 0.31738 0.24058
1077 2 0.40152 0.393275 0.230676
1078 4 0.41055 0.367054 0.207625
828 2 0.188235 0.483183 0.157496
765 2 0.482117 0.473905 0.178784
766 4 0.482378 0.449326 0.20517
830 4 0.207281 0.513419 0.162335
255 2 0.247359 0.570313 0.222413
865 4 0.317292 0.559804 0.240468
256 4 0.263686 0.551329 0.248363
722 4 0.33606 0.537603 0.169204
864 2 0.351689 0.550197 0.245464
866 4 0.386086 0.54059 0.25046
982 4 0.0169279 0.633085 0.180608
707 4 0.0548556 0.649788 0.237409
108 2 0.077944 0.651348 0.171845
110 4 0.106516 0.67167 0.180274
550 4 0.221188 0.620568 0.172504
257 4 0.231032 0.5893 0.196462
61 4 0.247388 0.625914 0.203051
60 2 0.242128 0.660899 0.210041
923 4 0.097939 0.705862 0.169769
921 2 0.117785 0.725217 0.192832
922 4 0.137631 0.744573 0.215895
280 4 0.24033 0.734399 0.211766
62 4 0.236866 0.695884 0.21703
596 4 0.317512 0.752252 0.188048
594 2 0.348763 0.743668 0.172234
207 2 0.0719654 0.797288 0.231989
209 4 0.0834268 0.803638 0.198393
776 4 0.332091 0.792822 0.167213
955 4 0.317317 0.802045 0.200167
954 2 0.309256 0.818998 0.230957
279 2 0.248923 0.764853 0.229062
486 2 0.0687312 0.874963 0.203089
487 4 0.0839384 0.842554 0.198753
488 4 0.0535235 0.907372 0.207425
1337 4 0.404547 0.888204 0.251235
844 4 0.441063 0.88378 0.252546
1208 4 0.055027 0.939951 0.191867
724 4 0.0755121 0.993313 0.21257
725 4 0.134646 0.9792 0.173767
723 2 0.105079 0.986257 0.193169
385 4 0.0858521 0.962066 0.232292
745 4 0.488777 0.966986 0.186885
744 2 0.463874 0.983874 0.16701
1269 2 0.0102764 0.078248 0.301769
545 4 0.393784 0.0590042 0.270289
46 1 0.401043 0.997076 0.268846
49 3 0.408515 0.0286403 0.277081
48 3 0.428855 0.978468 0.268507
949 4 0.499211 0.036466 0.279232
948 2 0.466789 0.0391918 0.294783
950 4 0.434368 0.0419177 0.310333
1271 4 0.0415867 0.0820918 0.284297
11 1 0.0749747 0.089907 0.248535
15 3 0.0483633 0.105565 0.259737
13 3 0.0885388 0.0715159 0.272983
959 4 0.310392 0.113384 0.29277
957 2 0.34087 0.129489 0.30336
958 4 0.371348 0.145594 0.31395
1213 4 0.405273 0.153396 0.328117
1076 4 0.00571989 0.230269 0.268128
1460 4 0.0368439 0.244201 0.264534
1458 2 0.0418359 0.267489 0.291611
1459 4 0.0468287 0.290776 0.318688
902 4 0.0608587 0.32476 0.31685
1294 4 0.252225 0.281159 0.345723
1505 4 0.31763 0.244267 0.316957
52 4 0.307245 0.307872 0.275311
1504 4 0.270967 0.299116 0.32092
1503 2 0.294298 0.271691 0.318938
451 4 0.0400784 0.406677 0.319844
1079 4 0.39249 0.419496 0.253727
411 2 0.494166 0.39839 0.338419
450 2 0.0536318 0.437177 0.333497
452 4 0.0671853 0.467679 0.34715
437 4 0.209654 0.430087 0.322065
1121 4 0.400585 0.438247 0.285374
1119 2 0.431264 0.424219 0.298119
1120 4 0.461944 0.410191 0.310863
412 4 0.499811 0.412561 0.305743
34 3 0.314527 0.536334 0.334158
854 4 0.383788 0.53848 0.285766
33 3 0.364674 0.554184 0.321072
491 4 0.488823 0.532531 0.312947
853 4 0.455248 0.544132 0.293721
852 2 0.419518 0.541305 0.289743
931 4 0.284384 0.598423 0.239639
930 2 0.292827 0.605623 0.273951
932 4 0.30127 0.612823 0.308263
1211 4 0.375101 0.577687 0.290294
1209 2 0.386074 0.611869 0.286875
1210 4 0.397047 0.646049 0.283454
163 4 0.401689 0.647806 0.315318
705 2 0.0384998 0.67833 0.252182
676 4 0.068812 0.772201 0.314812
706 4 0.022144 0.706872 0.266956
675 2 0.0906402 0.751009 0.295451
677 4 0.112468 0.729818 0.276089
1103 4 0.200393 0.737301 0.266881
635 4 0.0323487 0.776729 0.290541
208 4 0.0605035 0.790938 0.265586
564 2 0.283309 0.367426 0.0119141
1102 4 0.133736 0.760231 0.282135
1101 2 0.167065 0.748766 0.274508
905 4 0.231307 0.81002 0.266709
903 2 0.238422 0.821342 0.3002
281 4 0.257516 0.795307 0.246357
1281 2 0.336453 0.825034 0.306216
956 4 0.301193 0.835951 0.261746
1335 2 0.375542 0.904037 0.265671
1282 4 0.329743 0.839736 0.27398
1336 4 0.346536 0.919871 0.280107
386 4 0.0939294 0.943215 0.301437
384 2 0.0898909 0.952641 0.266865
999 2 0.285994 0.953465 0.26379
1001 4 0.254021 0.969955 0.266287
50 3 0.379526 0.98468 0.290344
681 2 0.327609 0.00191584 0.333172
683 4 0.356489 0.00208813 0.311578
1000 4 0.317967 0.936976 0.261294
843 2 0.457159 0.915821 0.256382
845 4 0.473255 0.947862 0.260219
608 4 0.107568 0.0102896 0.380899
682 4 0.298729 0.00174352 0.354767
1088 4 0.26349 0.995795 0.354028
1086 2 0.272925 0.00465533 0.387686
1087 4 0.282361 0.0135159 0.421343
1084 4 0.0463061 0.166997 0.355988
1366 4 0.13279 0.163495 0.399764
359 4 0.481568 0.0960436 0.33627
1085 4 0.0291626 0.226369 0.393174
1083 2 0.0377342 0.196683 0.374581
1365 2 0.159434 0.181572 0.383524
1212 2 0.412103 0.180061 0.351414
1214 4 0.418934 0.206725 0.374712
664 4 0.459183 0.179601 0.377187
1453 4 0.441498 0.177761 0.40794
88 4 0.466347 0.243169 0.407888
193 4 0.116043 0.267076 0.375491
699 2 0.139823 0.321538 0.357936
700 4 0.11149 0.299372 0.355415
192 2 0.122944 0.258561 0.409847
1293 2 0.219585 0.2961 0.349156
1295 4 0.186944 0.31104 0.352589
662 4 0.236526 0.292114 0.414359
87 2 0.45889 0.277878 0.414218
900 2 0.059684 0.357597 0.331709
901 4 0.058509 0.390434 0.346567
701 4 0.168156 0.343703 0.360457
1323 2 0.421092 0.36596 0.374086
82 4 0.386742 0.367898 0.414753
1324 4 0.385633 0.359418 0.374602
1325 4 0.456551 0.372501 0.373569
413 4 0.488521 0.38422 0.371095
435 2 0.221425 0.422491 0.355293
436 4 0.233197 0.414896 0.388522
523 4 0.391468 0.456542 0.381855
522 2 0.415875 0.448064 0.407011
31 1 0.33879 0.55803 0.341934
35 3 0.327361 0.588767 0.340064
32 3 0.349009 0.552039 0.372924
1399 4 0.346415 0.584039 0.397036
869 4 0.0878116 0.309211 0.00991402
307 4 0.465839 0.512958 0.376359
119 4 0.302627 0.614425 0.34723
117 2 0.28921 0.647778 0.344407
93 2 0.358434 0.657561 0.400871
95 4 0.347501 0.652842 0.366833
162 2 0.418321 0.657303 0.345872
1496 4 0.437899 0.6419 0.404092
164 4 0.434953 0.6668 0.376426
463 4 0.032236 0.661489 0.391608
462 2 0.0416594 0.694049 0.379302
464 4 0.0510822 0.72661 0.366996
118 4 0.275794 0.681131 0.341584
904 4 0.245536 0.832663 0.33369
1397 4 0.399649 0.746964 0.389969
1396 4 0.373766 0.790383 0.338524
1395 2 0.386708 0.768674 0.364247
1163 4 0.417734 0.754469 0.41662
1283 4 0.343165 0.810331 0.338452
1056 2 0.00832288 0.867408 0.40598
430 4 0.164659 0.888177 0.368925
431 4 0.225306 0.861501 0.340431
429 2 0.194982 0.874839 0.354677
1508 4 0.268315 0.890756 0.400253
607 4 0.166799 0.987479 0.34665
606 2 0.137184 0.998884 0.363775
1506 2 0.26707 0.921825 0.418517
640 4 0.478907 0.990312 0.398834
748 4 0.341417 0.0250554 0.484536
1185 2 0.0131035 0.996965 0.444193
490 4 0.498749 0.477117 0.267864
585 2 0.23235 0.0695532 0.431776
586 4 0.259329 0.0461395 0.426843
749 4 0.279747 0.00430987 0.453424
747 2 0.310582 0.0146826 0.46898
1234 4 0.485841 0.240314 0.256128
1329 2 0.492905 0.0274278 0.475607
849 2 0.0223701 0.119699 0.481215
850 4 0.0415397 0.113378 0.451332
381 2 0.138929 0.168557 0.495192
587 4 0.205371 0.0929667 0.436709
1024 4 0.39258 0.135104 0.490815
1023 2 0.362579 0.154476 0.495824
269 4 0.418065 0.127638 0.467276
267 2 0.454085 0.127216 0.465608
268 4 0.490105 0.126794 0.463939
1367 4 0.186077 0.199649 0.367283
514 4 0.0984599 0.246055 0.455969
194 4 0.129846 0.250047 0.444202
382 4 0.167347 0.188559 0.485563
1454 4 0.398012 0.19912 0.461366
1452 2 0.419755 0.188441 0.434652
1507 4 0.265824 0.952894 0.43678
513 2 0.0965191 0.257105 0.49024
346 4 0.259903 0.333517 0.479467
661 4 0.276767 0.2992 0.47379
660 2 0.256646 0.295657 0.444074
89 4 0.451434 0.312588 0.420549
30 3 0.444968 0.338576 0.493327
81 2 0.360535 0.354163 0.435367
83 4 0.334328 0.340427 0.45598
1425 2 0.431273 0.406902 0.479808
1426 4 0.429986 0.372983 0.491983
524 4 0.440283 0.439587 0.432167
1427 4 0.432561 0.440821 0.467632
1398 2 0.354492 0.564901 0.426513
1400 4 0.362569 0.545762 0.455989
94 4 0.369368 0.662279 0.43491
1494 2 0.441457 0.63407 0.439113
1495 4 0.445015 0.62624 0.474133
610 4 0.0663537 0.713077 0.473183
609 2 0.0432293 0.72509 0.49811
649 4 0.145351 0.726583 0.494031
650 4 0.178538 0.749076 0.434078
648 2 0.161944 0.737829 0.464055
1161 2 0.422973 0.723733 0.434737
1162 4 0.428212 0.692996 0.452855
22 3 0.44311 0.663353 0.475723
1224 2 0.0688162 0.822641 0.440489
69 2 0.145985 0.828293 0.476495
70 4 0.137804 0.818419 0.44279
1226 4 0.101804 0.813236 0.451614
967 4 0.42889 0.799889 0.450031
966 2 0.447479 0.790692 0.479531
1058 4 0.0127001 0.857317 0.440323
1225 4 0.0358285 0.832046 0.429365
1435 4 0.363884 0.861675 0.487305
1388 4 0.482921 0.858479 0.453955
1386 2 0.49525 0.833573 0.430976
1468 4 0.0406518 0.911875 0.43204
1187 4 0.0415138 0.98013 0.458679
1467 2 0.0752672 0.920621 0.43711
1469 4 0.109882 0.929368 0.44218
1115 4 0.232356 0.96712 0.441
1113 2 0.218405 0.965723 0.474223
580 4 0.0062069 0.993546 0.22854
663 2 0.49492 0.183703 0.379727
618 2 0.191711 0.0225702 0.534917
620 4 0.172436 0.0402387 0.559751
915 2 0.0124748 0.168757 0.899604
1331 4 0.473333 0.0159866 0.503651
288 2 0.0672896 0.920322 0.994961
202 4 0.000969706 0.0816238 0.591521
1043 4 0.0833286 0.122881 0.511684
1041 2 0.105446 0.110515 0.537341
383 4 0.110509 0.148556 0.504821
1042 4 0.127563 0.0981485 0.562999
1025 4 0.332578 0.173846 0.500833
1253 4 0.238511 0.152763 0.518913
1251 2 0.260737 0.180683 0.524095
1252 4 0.282963 0.208604 0.529278
344 4 0.0625612 0.286805 0.519112
342 2 0.0273992 0.284196 0.511546
515 4 0.0945773 0.268155 0.524511
652 4 0.365828 0.271093 0.592412
27 3 0.403652 0.328602 0.526355
26 1 0.436398 0.325347 0.522144
29 3 0.444174 0.2928 0.52253
629 4 0.470786 0.310415 0.544535
1516 4 0.0201639 0.410735 0.535966
1515 2 0.0537673 0.420744 0.544394
538 4 0.108941 0.406448 0.566122
295 4 0.107459 0.376629 0.545246
294 2 0.137317 0.357777 0.537931
347 4 0.20576 0.35525 0.52187
345 2 0.232832 0.344384 0.500668
296 4 0.167175 0.338926 0.530615
28 3 0.452138 0.341149 0.547093
1517 4 0.0873707 0.430753 0.552822
537 2 0.127256 0.437508 0.565591
539 4 0.145569 0.468568 0.565059
64 4 0.156159 0.474992 0.531856
63 2 0.175034 0.502085 0.546351
65 4 0.193908 0.529178 0.560846
1289 4 0.0359295 0.631973 0.531568
1255 4 0.0664713 0.637643 0.546479
1287 2 0.00398101 0.646877 0.539157
1254 2 0.0954753 0.648544 0.564926
1256 4 0.12448 0.659446 0.583373
24 3 0.447078 0.645985 0.52692
298 4 0.454402 0.631756 0.572168
611 4 0.020105 0.737103 0.523038
206 4 0.049623 0.733296 0.54107
848 4 0.126762 0.686572 0.559592
846 2 0.157691 0.704004 0.553274
847 4 0.18862 0.721436 0.546955
643 4 0.219444 0.706038 0.552036
642 2 0.238638 0.728196 0.573037
1197 2 0.409363 0.714173 0.56184
23 3 0.405631 0.678525 0.511827
1198 4 0.424055 0.698591 0.532827
814 4 0.484161 0.718608 0.514714
25 3 0.456201 0.6981 0.514691
813 2 0.499292 0.732872 0.544176
21 1 0.438093 0.671674 0.507444
205 4 0.0558525 0.787709 0.587995
204 2 0.0527376 0.760502 0.564533
1360 4 0.0199007 0.789381 0.583136
148 4 0.182415 0.756073 0.564808
147 2 0.173084 0.779944 0.53944
149 4 0.163752 0.803815 0.514073
560 4 0.330971 0.800944 0.561102
968 4 0.466068 0.781495 0.509032
71 4 0.154165 0.838166 0.5102
742 4 0.20096 0.879249 0.540171
741 2 0.193413 0.901662 0.567395
1434 2 0.368984 0.893822 0.502828
1114 4 0.204454 0.964326 0.507447
970 4 0.33067 0.00774007 0.510827
1436 4 0.374085 0.92597 0.51835
969 2 0.348131 0.986341 0.534011
971 4 0.365592 0.964941 0.557197
605 4 0.413178 0.945322 0.522146
416 4 0.400559 0.996413 0.584062
603 2 0.42422 0.978363 0.512827
403 4 0.20597 0.0408667 0.573498
402 2 0.219017 0.0301751 0.605371
404 4 0.232062 0.0194832 0.637244
415 4 0.380705 0.0655965 0.57947
414 2 0.390632 0.0310048 0.581766
625 4 0.429337 0.0244818 0.651164
216 2 0.0650411 0.153957 0.661255
1171 4 0.207467 0.159802 0.651779
218 4 0.093387 0.169665 0.645437
479 4 0.0356236 0.207555 0.619652
477 2 0.0400767 0.232312 0.645492
653 4 0.419967 0.226637 0.609568
947 4 0.429572 0.201798 0.638019
945 2 0.457929 0.199636 0.660192
478 4 0.0445302 0.257069 0.67133
1267 4 0.0720381 0.26561 0.644821
1266 2 0.0810115 0.294762 0.664057
285 2 0.314257 0.291546 0.611297
286 4 0.282333 0.303552 0.599588
287 4 0.346182 0.279542 0.623006
651 2 0.392897 0.248865 0.60099
1268 4 0.0899844 0.323914 0.683294
1116 2 0.0730589 0.492773 0.650366
1432 4 0.161784 0.438076 0.641635
1433 4 0.224723 0.473194 0.63898
1431 2 0.193254 0.455635 0.640308
472 4 0.403554 0.489112 0.645123
1118 4 0.0983569 0.50345 0.626991
332 4 0.211978 0.529011 0.628007
330 2 0.247955 0.52826 0.625659
331 4 0.283932 0.52751 0.623311
751 4 0.31675 0.548453 0.620457
750 2 0.344268 0.52517 0.621484
752 4 0.371787 0.501886 0.622511
563 4 0.0221136 0.66234 0.630981
98 4 0.0158684 0.633165 0.651038
96 2 0.0339558 0.602948 0.643278
1168 4 0.384398 0.648785 0.649131
297 2 0.466007 0.659988 0.591368
561 2 0.0191356 0.697745 0.637147
562 4 0.0161578 0.73315 0.643312
644 4 0.257833 0.750354 0.594037
1199 4 0.394671 0.729755 0.590853
1510 4 0.41471 0.737875 0.623239
299 4 0.477611 0.688221 0.61057
1509 2 0.44761 0.727768 0.634001
790 4 0.462259 0.682934 0.646505
1511 4 0.48051 0.717661 0.644763
789 2 0.484387 0.662654 0.666493
893 4 0.0703241 0.826132 0.613736
891 2 0.100975 0.811342 0.601812
892 4 0.131626 0.796552 0.589888
559 4 0.271326 0.785733 0.598687
558 2 0.301149 0.793338 0.579895
800 4 0.00945715 0.935192 0.666989
211 4 0.0841697 0.903994 0.625322
445 4 0.124707 0.894166 0.659807
328 4 0.11251 0.924336 0.663709
444 2 0.154758 0.897259 0.640115
446 4 0.184809 0.900352 0.620423
743 4 0.185867 0.924075 0.594619
210 2 0.0556646 0.909429 0.603913
212 4 0.0271593 0.914865 0.582505
376 4 0.220368 0.983641 0.632844
1369 4 0.494916 0.0423029 0.762981
624 2 0.449033 0.0461423 0.672219
626 4 0.468729 0.0678027 0.693274
1368 2 0.47013 0.0684648 0.764272
217 4 0.0366953 0.138249 0.677073
278 4 0.492878 0.146781 0.750654
1172 4 0.183314 0.166454 0.71941
1170 2 0.19539 0.163128 0.685594
571 4 0.252284 0.185506 0.717336
572 4 0.320559 0.204474 0.730766
570 2 0.286421 0.19499 0.724051
125 4 0.488312 0.212062 0.715225
123 2 0.492564 0.246065 0.726457
946 4 0.486285 0.197475 0.682365
836 4 0.343133 0.288919 0.678336
134 4 0.286222 0.306378 0.755273
834 2 0.361449 0.319746 0.682158
857 4 0.385886 0.353869 0.720702
888 2 0.46008 0.32003 0.723697
889 4 0.451918 0.288259 0.738675
835 4 0.379766 0.350573 0.68598
890 4 0.468242 0.351801 0.708718
926 4 0.478267 0.381756 0.722865
1449 2 0.0175475 0.493223 0.711938
1451 4 0.0275384 0.464585 0.692433
1117 4 0.0477609 0.482098 0.673742
546 2 0.499578 0.433068 0.682439
547 4 0.472193 0.440021 0.704846
473 4 0.448879 0.445365 0.680243
471 2 0.426217 0.467238 0.662683
97 4 0.0520436 0.572732 0.635518
1450 4 0.00755606 0.521859 0.731445
998 4 0.00280451 0.64579 0.685255
604 4 0.435261 0.0114034 0.503508
988 4 0.239446 0.641364 0.652875
484 4 0.281981 0.628135 0.686868
483 2 0.298585 0.655923 0.702758
485 4 0.315189 0.683712 0.718648
1169 4 0.385297 0.63773 0.720396
1167 2 0.384848 0.643257 0.684764
989 4 0.207381 0.701992 0.675184
987 2 0.223414 0.671678 0.664029
42 3 0.327703 0.669616 0.752162
140 4 0.27565 0.777951 0.699566
138 2 0.273733 0.776235 0.735535
1005 2 0.0012065 0.88221 0.741878
754 4 0.0185234 0.997513 0.724581
753 2 0.0107546 0.964426 0.712527
327 2 0.0869905 0.932896 0.687706
329 4 0.0614706 0.941456 0.711703
375 2 0.199495 0.967775 0.657603
377 4 0.178623 0.951908 0.682363
1429 4 0.119342 0.00746257 0.813083
1428 2 0.132041 0.0364627 0.83035
638 4 0.11745 0.0297621 0.781802
1236 2 0.199969 0.0758273 0.814047
91 4 0.251769 0.0791193 0.768637
442 4 0.314148 0.0435174 0.764759
443 4 0.27181 0.00647522 0.809892
441 2 0.292979 0.0249964 0.787326
1237 4 0.223463 0.0632693 0.789741
90 2 0.259614 0.114184 0.765577
92 4 0.267458 0.149248 0.762517
961 4 0.37852 0.131078 0.784835
960 2 0.404986 0.131006 0.809329
1370 4 0.445345 0.0946264 0.765563
962 4 0.431451 0.130935 0.833823
240 2 0.240107 0.185239 0.803679
242 4 0.209665 0.201368 0.814334
241 4 0.270549 0.169111 0.793023
1195 4 0.430016 0.295232 0.761215
1194 2 0.428339 0.287517 0.7964
133 4 0.258188 0.367827 0.780564
132 2 0.272205 0.337103 0.767919
855 2 0.379808 0.35519 0.756223
856 4 0.373731 0.35651 0.791745
838 4 0.360633 0.385117 0.81744
493 4 0.370641 0.348305 0.831392
837 2 0.377005 0.415995 0.808552
924 2 0.48305 0.399066 0.754136
1457 4 0.481934 0.390384 0.821786
925 4 0.487833 0.416375 0.785408
874 4 0.427405 0.845606 0.911038
1064 4 0.018479 0.554137 0.813946
1382 4 0.168958 0.563337 0.783529
1380 2 0.16363 0.534345 0.804301
1381 4 0.158301 0.505353 0.825074
553 4 0.325732 0.562108 0.810375
552 2 0.299517 0.537653 0.806486
554 4 0.273302 0.513198 0.802597
588 2 0.0461256 0.601059 0.827157
590 4 0.0408681 0.632503 0.844009
619 4 0.210985 0.00490163 0.510083
398 4 0.019562 0.65082 0.821432
44 3 0.331873 0.661293 0.805564
1060 4 0.296572 0.638677 0.806987
1059 2 0.267742 0.617035 0.806054
512 4 0.463592 0.65492 0.837187
510 2 0.484357 0.626866 0.82812
613 4 0.0589495 0.742169 0.771085
498 2 0.228851 0.696623 0.807368
499 4 0.203815 0.722371 0.81063
500 4 0.253888 0.670875 0.804104
41 1 0.31333 0.675344 0.78151
45 3 0.311297 0.707757 0.786418
43 3 0.282696 0.661874 0.781365
614 4 0.034554 0.807567 0.789241
612 2 0.0467518 0.774868 0.780162
139 4 0.271815 0.774519 0.771504
756 2 0.402815 0.730087 0.788161
757 4 0.390463 0.749574 0.815875
758 4 0.415168 0.710599 0.760447
77 4 0.0220298 0.847133 0.805318
1007 4 0.012047 0.865391 0.771879
637 4 0.098158 0.970284 0.745861
636 2 0.107804 2.3336e-05 0.763831
1470 2 0.301902 0.946325 0.819103
1471 4 0.29639 0.931978 0.786481
1430 4 0.14474 0.0654633 0.847616
1238 4 0.176475 0.0883851 0.838353
187 4 0.316639 0.0429186 0.873207
186 2 0.292509 0.016727 0.878877
916 4 0.0431182 0.164781 0.881014
353 4 0.0409793 0.214551 0.856641
352 4 0.111007 0.197793 0.86075
351 2 0.0759932 0.206172 0.858695
494 4 0.346419 0.33508 0.898027
1196 4 0.42666 0.279802 0.831587
492 2 0.35853 0.341692 0.864711
1456 4 0.427558 0.354906 0.853191
1455 2 0.454746 0.372645 0.837489
1277 4 0.0223005 0.468955 0.896749
1275 2 0.0371311 0.492238 0.91995
839 4 0.393378 0.446871 0.799663
589 4 0.051383 0.569613 0.810305
1062 2 0.00735476 0.53768 0.844044
716 4 0.136652 0.602234 0.83052
715 4 0.201763 0.601664 0.861533
714 2 0.169207 0.601949 0.846026
1061 4 0.238912 0.595393 0.805122
868 4 0.0210581 0.312011 0.982753
396 2 0.0250209 0.678489 0.843905
397 4 0.0304794 0.706157 0.866378
1292 4 0.0174679 0.697349 0.897729
973 4 0.137533 0.705709 0.874468
972 2 0.149818 0.723724 0.903191
688 4 0.390188 0.721675 0.908005
974 4 0.162102 0.741739 0.931913
1493 4 0.391535 0.834348 0.911723
1310 4 0.437933 0.7811 0.912196
875 4 0.439478 0.785616 0.872866
873 2 0.433441 0.815611 0.891952
75 2 0.0124093 0.869545 0.83188
76 4 0.00278822 0.891958 0.858442
1089 2 0.111856 0.897508 0.897733
1315 4 0.298603 0.895404 0.898529
362 4 0.284885 0.880894 0.931332
1091 4 0.143859 0.910083 0.908599
1314 2 0.310018 0.929072 0.892482
1472 4 0.307414 0.960672 0.851725
188 4 0.268379 0.990535 0.884546
1316 4 0.321432 0.96274 0.886435
283 4 0.347113 0.084451 0.940564
282 2 0.345735 0.0527126 0.957628
284 4 0.344356 0.0209736 0.974692
215 4 0.319614 0.117542 0.967114
213 2 0.31285 0.143176 0.942669
802 4 0.999693 0.17753 0.987715
965 4 0.170187 0.241544 0.972737
214 4 0.306086 0.168809 0.918223
704 4 0.013363 0.73515 0.849271
1219 4 0.410139 0.291158 0.977244
1218 2 0.436526 0.299452 0.954107
1220 4 0.462913 0.307747 0.930969
1222 4 0.161309 0.399872 0.921534
1221 2 0.188575 0.412952 0.941179
851 4 0.00320875 0.126016 0.511088
565 4 0.306082 0.369326 0.984019
1276 4 0.0519621 0.515522 0.943152
1223 4 0.215839 0.426031 0.960824
131 4 0.238473 0.440661 0.941193
129 2 0.268836 0.459925 0.943906
130 4 0.2992 0.479189 0.946618
871 4 0.401406 0.478031 0.958885
468 2 0.492848 0.471326 0.989627
870 2 0.424263 0.458973 0.938518
872 4 0.44712 0.439916 0.918152
1401 2 0.114202 0.555549 0.947382
1403 4 0.0863863 0.532839 0.944068
1402 4 0.142017 0.578259 0.950695
529 4 0.334731 0.517299 0.979381
469 4 0.461405 0.487001 0.997756
622 4 0.48624 0.586512 0.952854
220 4 0.480064 0.621793 0.94723
219 2 0.474688 0.620585 0.982868
1492 4 0.365699 0.890691 0.948596
84 2 0.232876 0.748623 0.967051
85 4 0.227447 0.745954 0.931501
1299 2 0.332934 0.671067 0.99515
689 4 0.331161 0.698141 0.942117
687 2 0.360675 0.709908 0.925061
1300 4 0.341885 0.69947 0.974814
427 4 0.47052 0.702587 0.932765
1309 4 0.443417 0.715565 0.941804
1308 2 0.440676 0.748332 0.927
820 4 0.0445775 0.780355 0.990837
819 2 0.0208476 0.767743 0.96679
860 4 0.132108 0.768121 0.933825
858 2 0.153569 0.78177 0.959388
859 4 0.175031 0.795419 0.984952
290 4 0.078053 0.893742 0.973097
1090 4 0.0798531 0.884933 0.886867
361 4 0.251321 0.858975 0.991287
360 2 0.268103 0.869934 0.96131
406 4 0.248959 0.896584 0.990565
1491 2 0.378617 0.862519 0.93016
627 2 0.498354 0.306117 0.567382
740 4 0.00129068 0.949638 0.984607
867 2 0.054435 0.31061 0.996333
1411 4 0.498639 0.798753 0.629846
124 4 0.496815 0.280067 0.73769
631 4 0.00492505 0.318354 0.715672
755 4 0.00298551 0.931339 0.700473
426 2 0.498767 0.701933 0.955171
1004 4 0.6825 0.0210179 0.0338565
1002 2 0.713854 0.0267426 0.0169893
1080 2 0.847721 0.0766887 0.0183103
355 4 0.981386 0.0722322 0.078671
796 4 0.656725 0.156131 0.0668747
1008 2 0.889238 0.154111 0.065923
1009 4 0.856661 0.142546 0.0556561
1081 4 0.855406 0.102592 0.042194
1478 4 0.517803 0.203986 0.0261918
597 2 0.707666 0.841064 0.425842
1150 4 0.658916 0.256119 0.0108189
155 4 0.647851 0.249589 0.0445931
795 2 0.677756 0.162985 0.0383946
797 4 0.698787 0.169839 0.00991432
541 4 0.828647 0.224041 0.0511226
335 4 0.921376 0.243677 0.0371529
540 2 0.857009 0.243586 0.0404445
334 4 0.952604 0.191369 0.0757575
333 2 0.936991 0.217523 0.0564555
153 2 0.646419 0.261056 0.0787524
542 4 0.885372 0.26313 0.0297667
1313 4 0.956351 0.281237 0.0464298
1311 2 0.973221 0.30322 0.0233531
1312 4 0.990092 0.325203 0.000276842
952 4 0.545213 0.39033 0.100951
555 2 0.538031 0.4201 0.0184693
557 4 0.570656 0.407317 0.0269877
126 2 0.706876 0.406611 0.0674856
128 4 0.690942 0.374745 0.0730548
1011 2 0.777676 0.386742 0.0431234
1012 4 0.7754 0.407623 0.0138109
127 4 0.722811 0.438478 0.0619165
1183 4 0.962385 0.43837 0.0232928
1182 2 0.983428 0.444944 0.0518309
808 4 0.662634 0.565263 0.0490049
807 2 0.626931 0.570313 0.0485756
809 4 0.591228 0.575363 0.0481459
708 2 0.85517 0.536354 0.00511442
709 4 0.843386 0.569436 0.0133065
174 2 0.986133 0.578449 0.0253852
509 4 0.506011 0.622635 0.0228295
507 2 0.518261 0.60953 0.0541126
508 4 0.530511 0.596427 0.0853956
732 2 0.500556 0.8067 0.0175937
1029 2 0.820481 0.609008 0.0185133
1030 4 0.828689 0.584696 0.04385
1334 4 0.70823 0.899933 0.487289
1438 4 0.613969 0.75512 0.0306094
455 4 0.98452 0.674424 0.0275634
912 2 0.562073 0.74096 0.0292345
914 4 0.531182 0.749384 0.0126472
245 4 0.500629 0.234124 0.421376
734 4 0.505631 0.771038 0.0192739
1437 2 0.647992 0.766332 0.0264749
913 4 0.592965 0.732537 0.0458223
1439 4 0.682016 0.777544 0.0223408
1473 2 0.782296 0.830232 0.0452202
1475 4 0.757732 0.805381 0.0363083
1518 2 0.859684 0.796596 0.0625571
1520 4 0.861962 0.832455 0.0594983
1519 4 0.857406 0.760737 0.0656162
368 4 0.604444 0.842944 0.084043
1474 4 0.806861 0.855083 0.0541322
1406 4 0.940982 0.890771 0.0661953
769 4 0.574241 0.936223 0.0842635
438 2 0.648368 0.000457107 0.0624296
440 4 0.652614 0.0103964 0.0280263
764 4 0.617328 0.00185876 0.16724
762 2 0.642857 0.991622 0.143918
354 2 0.963266 0.0738793 0.109805
1133 4 0.670549 0.177798 0.0926221
1132 4 0.671325 0.166166 0.163796
1131 2 0.670937 0.171982 0.128209
100 4 0.961114 0.165583 0.0983065
356 4 0.945145 0.0755261 0.14094
200 4 0.514741 0.255427 0.156388
818 4 0.757132 0.222188 0.13024
816 2 0.723374 0.23305 0.136785
787 4 0.778334 0.249274 0.1144
786 2 0.800554 0.225609 0.0986934
788 4 0.822773 0.201945 0.082987
1010 4 0.921816 0.165677 0.07619
99 2 0.985176 0.188441 0.112412
505 4 0.976592 0.231489 0.151511
198 2 0.53265 0.271694 0.129647
199 4 0.550558 0.287961 0.102906
953 4 0.537834 0.319682 0.113441
154 4 0.644987 0.272523 0.112912
817 4 0.689616 0.243913 0.14333
526 4 0.824104 0.271799 0.139
1173 2 0.910206 0.263724 0.1561
1175 4 0.877651 0.279232 0.155865
1174 4 0.942762 0.248216 0.156334
1229 4 0.907812 0.32922 0.13931
504 2 0.993544 0.26224 0.1433
951 2 0.541524 0.355006 0.107196
1013 4 0.779953 0.365861 0.0724358
794 4 0.80658 0.374689 0.112163
792 2 0.803013 0.395139 0.141651
1227 2 0.912985 0.360218 0.156996
159 2 0.97744 0.486449 0.135016
697 4 0.991389 0.438539 0.167875
899 4 0.911346 0.560294 0.190745
897 2 0.93603 0.553197 0.165431
898 4 0.960712 0.546101 0.140117