ITEM: TIMESTEP
541500
ITEM: NUMBER OF ATOMS
1520
ITEM: BOX BOUNDS pp pp pp
-6.9326749999999997e+00 6.9326749999999997e+00
-6.9326749999999997e+00 6.9326749999999997e+00
-6.9326749999999997e+00 6.9326749999999997e+00
ITEM: ATOMS id type xs ys zs
161 4 0.142144 0.022998 0.0222675
159 2 0.116471 0.043376 0.00723311
1033 4 0.00291134 0.22269 0.0344509
1089 2 0.204138 0.0157172 0.00761759
1166 4 0.280067 0.0176945 0.0245357
1135 4 0.425214 0.0489914 0.0668054
1134 2 0.444402 0.0308454 0.0422506
17 3 0.0574747 0.144644 0.0268322
1387 4 0.00920025 0.66215 0.322076
377 4 0.221622 0.153842 0.99886
806 4 0.999986 0.612165 0.184757
1190 4 0.495997 0.535757 0.34265
620 4 0.99734 0.0250667 0.131091
626 4 0.459495 0.0174302 0.42403
1445 4 0.0196613 0.203654 0.0746471
19 3 0.0263956 0.188698 0.0324767
16 1 0.0372273 0.165535 0.0108864
950 4 0.00728626 0.00783201 0.258292
926 4 0.068964 0.31516 0.0448933
214 4 0.249941 0.316938 0.087935
999 2 0.16746 0.407186 0.0416393
1000 4 0.157921 0.391821 0.0104405
707 4 0.391746 0.399194 0.0130437
1001 4 0.176998 0.42255 0.0728376
844 4 0.474637 0.464503 0.0418175
1289 4 0.3296 0.562912 0.0720462
1287 2 0.298301 0.549607 0.0840353
648 2 0.396051 0.54321 0.0122855
649 4 0.416745 0.539939 0.0416358
932 4 0.441938 0.550312 0.0648762
930 2 0.447179 0.585926 0.0670087
1462 4 0.29543 0.619296 0.0597386
1461 2 0.324856 0.638674 0.052055
1463 4 0.354282 0.658051 0.0443719
931 4 0.45242 0.62154 0.0691415
1187 4 0.431545 0.626381 0.0418217
1185 2 0.421625 0.660988 0.0439035
1061 4 0.19618 0.724384 0.0235723
1060 4 0.201463 0.754607 0.0888431
1059 2 0.198822 0.739495 0.0562076
111 2 0.149068 0.38303 0.489308
1186 4 0.411705 0.695596 0.0459849
1419 2 0.361259 0.73326 0.0366909
1420 4 0.394793 0.727287 0.0485302
574 4 0.005738 0.793531 0.0788316
614 4 0.453966 0.274745 0.47959
1421 4 0.327724 0.739234 0.0248516
1467 2 0.362291 0.813412 0.0147498
604 4 0.510684 0.748036 0.0607887
1398 2 0.138227 0.857838 0.0580826
1399 4 0.115997 0.870641 0.0327384
1469 4 0.373577 0.842962 0.0320665
1078 4 0.411597 0.919413 0.0377521
1411 4 0.395464 0.890493 0.0170518
226 4 0.0194198 0.928871 0.052553
1091 4 0.217097 0.985462 0.0223518
744 2 0.297477 0.895105 0.0740619
1077 2 0.425081 0.952854 0.038321
745 4 0.316494 0.876905 0.049414
1079 4 0.438566 0.986295 0.0388888
1136 4 0.46359 0.0126989 0.0176964
1045 4 0.229837 0.0402789 0.106342
462 2 0.288798 0.0379818 0.0921696
463 4 0.255277 0.0400508 0.0790357
464 4 0.322318 0.0359122 0.105304
217 4 0.384744 0.0343289 0.160387
218 4 0.324568 0.00582637 0.132673
216 2 0.354656 0.0200773 0.14653
1271 4 0.998535 0.121741 0.101489
1269 2 0.00297794 0.0859836 0.102922
1444 4 0.0215211 0.14504 0.11663
1052 4 0.168333 0.950472 0.468525
873 2 0.475352 0.129723 0.0701742
874 4 0.441451 0.142015 0.0703893
1443 2 0.020591 0.174347 0.0956389
724 4 0.144447 0.184866 0.11963
723 2 0.139985 0.171196 0.1527
84 2 0.30289 0.231811 0.110961
86 4 0.268619 0.229888 0.0999065
346 4 0.344272 0.18906 0.153976
85 4 0.337161 0.233734 0.122015
1309 4 0.423901 0.201097 0.161542
1308 2 0.433062 0.233624 0.148952
1371 2 0.00179218 0.297057 0.190713
1372 4 0.994705 0.313038 0.159173
925 4 0.0760588 0.346271 0.109572
924 2 0.0725113 0.330715 0.0772327
213 2 0.244425 0.281428 0.0909491
215 4 0.238909 0.24592 0.0939632
760 4 0.288128 0.325461 0.226767
652 4 0.451344 0.298548 0.147037
1310 4 0.442224 0.26615 0.136363
571 4 0.264545 0.364527 0.151403
570 2 0.25199 0.3982 0.154387
651 2 0.456784 0.332626 0.13657
653 4 0.462224 0.366702 0.126102
1244 4 0.219795 0.464393 0.179875
1242 2 0.210699 0.498969 0.175166
572 4 0.239436 0.431874 0.157371
428 4 0.464124 0.429642 0.131783
426 2 0.490223 0.443625 0.152368
1120 4 0.0959591 0.538774 0.188924
1276 4 0.0932039 0.559019 0.155105
5 3 0.207619 0.560096 0.15076
1288 4 0.267002 0.536303 0.0960246
482 4 0.242802 0.917924 0.46137
478 4 0.317547 0.842598 0.41196
1275 2 0.0835483 0.581881 0.128941
1277 4 0.0738926 0.604742 0.102777
1499 4 0.217081 0.657178 0.154439
2 3 0.183634 0.606281 0.137016
489 2 0.26145 0.646022 0.100759
491 4 0.243804 0.641046 0.131812
3 3 0.210853 0.603081 0.183784
1 1 0.191476 0.586273 0.162291
490 4 0.279097 0.650998 0.0697071
743 4 0.37469 0.65259 0.139622
741 2 0.407802 0.64197 0.14917
742 4 0.440915 0.631349 0.158718
379 4 0.0141749 0.6937 0.11103
378 2 0.00418223 0.721195 0.0899457
1498 4 0.193169 0.724536 0.164069
1497 2 0.205125 0.690857 0.159254
380 4 0.994189 0.748691 0.0688615
1151 4 0.0818752 0.805192 0.162399
1400 4 0.160457 0.845035 0.0834274
560 4 0.188157 0.758764 0.148797
559 4 0.173747 0.812032 0.102357
558 2 0.180952 0.785398 0.125577
82 4 0.249208 0.830223 0.139929
544 4 0.251793 0.822358 0.175299
227 4 0.0759284 0.925982 0.0972748
225 2 0.0476743 0.927427 0.0749138
661 4 0.151069 0.93388 0.141095
81 2 0.249936 0.863546 0.126166
83 4 0.250663 0.89687 0.112403
618 2 0.0158319 0.00225955 0.152026
660 2 0.179055 0.935887 0.118442
1044 2 0.219443 0.00684876 0.0976934
1046 4 0.20905 0.973419 0.0890444
662 4 0.20704 0.937895 0.0957892
746 4 0.27846 0.913305 0.0987099
519 2 0.0388903 0.0189699 0.218906
637 4 0.32488 0.00440694 0.20807
636 2 0.335614 0.00720416 0.242383
1201 4 0.43427 0.0435773 0.185663
1200 2 0.438776 0.0173862 0.210037
725 4 0.135521 0.157525 0.185769
345 2 0.358801 0.181895 0.186193
347 4 0.373331 0.17473 0.218411
761 4 0.28908 0.30372 0.158005
759 2 0.288604 0.314591 0.192386
720 2 0.438984 0.308049 0.228435
722 4 0.437012 0.340718 0.213294
436 4 0.445598 0.241876 0.232307
514 4 0.252173 0.378524 0.209877
513 2 0.269282 0.383677 0.2412
211 4 0.333495 0.337407 0.223897
212 4 0.403968 0.346395 0.21147
210 2 0.368732 0.341901 0.217684
1253 4 0.0378578 0.463332 0.248215
1407 2 0.141016 0.416643 0.211406
1409 4 0.105423 0.420897 0.207472
1408 4 0.176608 0.41239 0.21534
900 2 0.0681175 0.570892 0.234703
902 4 0.0659486 0.534898 0.234306
1119 2 0.131935 0.540221 0.190936
1243 4 0.201601 0.533544 0.170458
1121 4 0.167912 0.541668 0.192948
901 4 0.0702864 0.606886 0.235099
4 3 0.163314 0.576527 0.177515
522 2 0.184476 0.741739 0.233736
524 4 0.182243 0.705862 0.230856
1149 2 0.0759456 0.801828 0.19781
1150 4 0.0700162 0.798464 0.233221
523 4 0.18671 0.777615 0.236617
670 4 0.199296 0.804109 0.21566
545 4 0.278621 0.758977 0.196855
543 2 0.265207 0.790668 0.186077
982 4 0.360097 0.7732 0.210479
981 2 0.34754 0.805436 0.220656
1280 4 0.0117425 0.892081 0.18707
903 2 0.0682051 0.884468 0.215566
905 4 0.0367953 0.871567 0.203425
533 4 0.100576 0.912671 0.192504
904 4 0.0996146 0.897368 0.227707
669 2 0.202433 0.840018 0.214588
671 4 0.20557 0.875926 0.213515
983 4 0.334982 0.837672 0.230833
521 4 0.0439238 0.011443 0.184
619 4 0.0343249 0.979453 0.172962
238 4 0.128703 0.988546 0.217076
531 2 0.121784 0.941782 0.190729
532 4 0.142993 0.970893 0.188955
237 2 0.160372 0.993791 0.233507
1202 4 0.443281 0.991195 0.234412
446 4 0.475125 0.934281 0.242309
965 4 0.0682022 0.0371701 0.271193
520 4 0.0338574 0.026497 0.253812
963 2 0.0545406 0.0686293 0.282334
361 4 0.0972279 0.0179093 0.279494
360 2 0.123801 0.0338867 0.297907
362 4 0.150373 0.0498647 0.316319
964 4 0.040879 0.100088 0.293474
589 4 0.0715001 0.170502 0.250421
588 2 0.0740478 0.160356 0.284931
299 4 0.0452529 0.130728 0.315202
590 4 0.0765957 0.15021 0.319443
209 4 0.153031 0.0898784 0.308427
207 2 0.153069 0.109699 0.338553
494 4 0.470803 0.118472 0.292043
492 2 0.488747 0.149528 0.288309
480 2 0.242128 0.896772 0.490569
435 2 0.467039 0.227762 0.257634
437 4 0.488481 0.213647 0.282961
721 4 0.440956 0.27538 0.243575
1075 4 0.0423615 0.396016 0.324883
515 4 0.286392 0.388829 0.272523
1177 4 0.252729 0.346038 0.2904
1176 2 0.275484 0.362759 0.312828
1251 2 0.0616834 0.476349 0.271949
1074 2 0.076907 0.406288 0.323652
1252 4 0.0855093 0.489366 0.295683
1076 4 0.111452 0.416559 0.322422
591 2 0.206592 0.40088 0.319715
593 4 0.187028 0.395962 0.289824
43 3 0.0830723 0.587716 0.33117
167 4 0.29621 0.509744 0.290765
165 2 0.300346 0.545279 0.286225
166 4 0.304481 0.580813 0.281686
827 4 0.183142 0.663646 0.330188
466 4 0.303788 0.604708 0.255138
465 2 0.319259 0.636456 0.262427
678 2 0.253636 0.646248 0.333049
679 4 0.284022 0.629074 0.342113
467 4 0.334731 0.668204 0.269715
1471 4 0.0772225 0.694937 0.247564
1472 4 0.0421481 0.713963 0.307642
1470 2 0.0596851 0.70445 0.277603
826 4 0.178096 0.676244 0.259351
825 2 0.180617 0.669945 0.294769
1226 4 0.00972889 0.836978 0.295212
327 2 0.317611 0.801974 0.296678
329 4 0.283808 0.813491 0.301693
1434 2 0.404025 0.815757 0.302647
1436 4 0.375857 0.798408 0.316999
328 4 0.351413 0.790457 0.291664
1435 4 0.432194 0.833105 0.288295
537 2 0.0622053 0.835169 0.316549
538 4 0.0286108 0.822973 0.321351
539 4 0.0957998 0.847366 0.311747
343 4 0.203773 0.889697 0.243051
1328 4 0.228478 0.879486 0.290786
1326 2 0.221352 0.866812 0.323787
1345 4 0.400438 0.915247 0.253669
627 2 0.436707 0.890483 0.28145
629 4 0.45446 0.859266 0.27816
628 4 0.418955 0.921699 0.284739
239 4 0.192041 0.999035 0.249938
342 2 0.204092 0.925609 0.246302
344 4 0.204411 0.961522 0.249554
557 4 0.28455 0.937211 0.320242
555 2 0.308685 0.962536 0.311493
638 4 0.346348 0.0100011 0.276696
1346 4 0.385735 0.983509 0.235619
1344 2 0.393087 0.949378 0.244644
556 4 0.33282 0.987861 0.302743
1055 4 0.318424 0.846021 0.460476
444 2 0.498109 0.952437 0.263345
1405 4 0.00253516 0.98942 0.335596
624 2 0.48961 0.00364318 0.409768
1022 4 0.0672526 0.147742 0.359889
297 2 0.0133649 0.120057 0.328229
208 4 0.153107 0.129519 0.368679
1021 4 0.123516 0.160839 0.40307
1020 2 0.0953845 0.15429 0.38148
1208 4 0.179343 0.213748 0.436027
1206 2 0.155094 0.236552 0.422157
1207 4 0.130845 0.259357 0.408288
255 2 0.125394 0.316343 0.39134
256 4 0.109201 0.286338 0.403082
257 4 0.141588 0.346348 0.379598
765 2 0.33066 0.341891 0.375035
767 4 0.343556 0.335754 0.341923
1160 4 0.170304 0.371356 0.38263
1158 2 0.201765 0.381902 0.396752
1178 4 0.29824 0.37948 0.335255
592 4 0.226157 0.405797 0.349606
109 4 0.40276 0.445789 0.401901
108 2 0.409365 0.465765 0.372614
110 4 0.41597 0.485742 0.343328
1189 4 0.448222 0.483877 0.327566
41 1 0.0636365 0.584586 0.358232
42 3 0.0437742 0.558322 0.354193
392 4 0.0574008 0.556358 0.391217
308 4 0.26532 0.51981 0.396494
528 2 0.256121 0.569049 0.353613
530 4 0.246489 0.539726 0.372262
1188 2 0.47211 0.509817 0.335108
1388 4 0.0176116 0.621673 0.381173
44 3 0.0447504 0.61196 0.361961
1386 2 0.0134059 0.641911 0.351624
45 3 0.0822348 0.580081 0.384927
1259 4 0.149482 0.595972 0.368588
1257 2 0.177872 0.615673 0.358278
680 4 0.223247 0.66342 0.323988
1258 4 0.206262 0.635378 0.347966
529 4 0.265754 0.598372 0.334964
1351 4 0.332603 0.651209 0.378667
1350 2 0.352803 0.680395 0.372303
1036 4 0.112986 0.757436 0.346075
668 4 0.188424 0.706808 0.421288
666 2 0.198462 0.690408 0.390781
667 4 0.208499 0.674006 0.36027
1312 4 0.357969 0.722312 0.394933
1352 4 0.373003 0.709582 0.36594
1035 2 0.113627 0.785176 0.369107
1037 4 0.114268 0.812916 0.392139
402 2 0.146559 0.868722 0.372396
404 4 0.121316 0.891291 0.384799
289 4 0.140893 0.89991 0.416637
403 4 0.171802 0.846153 0.359993
1327 4 0.214227 0.854139 0.356787
479 4 0.342443 0.903655 0.382741
477 2 0.329995 0.873127 0.39735
1404 2 0.00764689 0.967436 0.36372
1406 4 0.0127588 0.945452 0.391845
595 4 0.371147 0.92155 0.370119
594 2 0.406428 0.916112 0.365006
596 4 0.441708 0.910675 0.359893
348 2 0.460407 0.0518794 0.469617
350 4 0.47531 0.0224828 0.454983
1172 4 0.0994725 0.129693 0.489572
830 4 0.160423 0.162167 0.407352
828 2 0.178608 0.160448 0.438445
829 4 0.196791 0.158728 0.469539
1024 4 0.232458 0.158564 0.460896
1023 2 0.247826 0.19095 0.464818
1025 4 0.263195 0.223335 0.468739
223 4 0.21768 0.270825 0.490646
130 4 0.378417 0.221069 0.496304
1476 2 0.475787 0.20493 0.4973
613 4 0.384754 0.255083 0.484555
612 2 0.41936 0.264914 0.482072
1216 4 0.066058 0.413031 0.423437
1215 2 0.0457792 0.422213 0.451808
112 4 0.113655 0.388666 0.49312
1159 4 0.233225 0.392449 0.410875
766 4 0.317764 0.348028 0.408147
1217 4 0.0255004 0.431394 0.480178
391 4 0.0787973 0.511812 0.443748
390 2 0.0680992 0.534085 0.417483
306 2 0.253442 0.507802 0.428355
307 4 0.241565 0.495795 0.460216
1311 2 0.348781 0.730379 0.428858
1115 4 0.439276 0.736999 0.478973
182 4 0.00513546 0.752458 0.437073
1053 2 0.33205 0.812645 0.461335
1313 4 0.339594 0.738446 0.462783
1054 4 0.345676 0.779267 0.462194
290 4 0.197133 0.938207 0.440555
1113 2 0.455788 0.765626 0.493405
288 2 0.169013 0.919059 0.428596
349 4 0.445504 0.0812764 0.48425
1477 4 0.440097 0.20351 0.492344
18 3 0.0112858 0.148265 0.998692
113 4 0.184481 0.377392 0.485496
157 4 0.309393 0.209478 0.00468665
193 4 0.474593 0.774243 0.00714614
1317 2 0.043831 0.0345186 0.577917
1319 4 0.0128982 0.0492891 0.566719
1438 4 0.00379421 0.39499 0.967712
1170 2 0.0785229 0.142112 0.516167
1171 4 0.0575728 0.154531 0.542762
580 4 0.354379 0.0682742 0.55653
176 4 0.456614 0.116113 0.583213
1402 4 0.0103052 0.220088 0.552288
1382 4 0.163609 0.213318 0.569463
125 4 0.170965 0.176046 0.571049
1380 2 0.139595 0.234749 0.5532
124 4 0.234772 0.202023 0.549705
123 2 0.202869 0.189034 0.560377
131 4 0.366489 0.154826 0.522213
129 2 0.372453 0.187947 0.509259
313 4 0.494514 0.600709 0.925673
1003 4 0.0254926 0.283671 0.567427
1002 2 0.0113571 0.290404 0.534942
645 2 0.00294858 0.629897 0.826514
1381 4 0.115582 0.25618 0.536938
89 4 0.098325 0.28066 0.516101
87 2 0.109622 0.313968 0.508139
224 4 0.256554 0.261353 0.550652
222 2 0.237117 0.266089 0.520649
656 4 0.499 0.342468 0.528155
1286 4 0.46377 0.269704 0.519202
1284 2 0.478226 0.257427 0.549873
898 4 0.492813 0.917765 0.931351
88 4 0.120918 0.347276 0.500177
1263 2 0.00597593 0.202421 0.833864
998 4 0.184531 0.377475 0.523432
996 2 0.220393 0.379563 0.526589
997 4 0.256256 0.381651 0.529745
895 4 0.356833 0.429299 0.51525
634 4 0.219851 0.475427 0.575618
633 2 0.198236 0.48208 0.54753
1094 4 0.223513 0.440522 0.583802
894 2 0.372613 0.461436 0.519561
896 4 0.388391 0.493574 0.523873
70 4 0.0721494 0.588207 0.516814
635 4 0.17662 0.488733 0.519443
69 2 0.0920762 0.585233 0.546722
319 4 0.392611 0.504505 0.558071
197 4 0.118847 0.620438 0.577185
921 2 0.28369 0.643497 0.545018
922 4 0.267204 0.660727 0.57207
923 4 0.300176 0.626266 0.517966
1362 2 0.0709308 0.72126 0.55396
1364 4 0.040029 0.739536 0.55057
1065 2 0.346099 0.725819 0.506178
1066 4 0.362829 0.694546 0.499653
230 4 0.0259985 0.774393 0.545506
228 2 0.0240044 0.787196 0.579159
495 2 0.107702 0.792378 0.555838
497 4 0.108222 0.788561 0.519984
933 2 0.261968 0.813704 0.539463
934 4 0.274323 0.785925 0.558856
1067 4 0.32937 0.757092 0.512703
866 4 0.15081 0.841247 0.548475
864 2 0.151923 0.863869 0.576536
935 4 0.249614 0.841484 0.52007
481 4 0.241454 0.875621 0.519767
1505 4 0.392473 0.971328 0.97352
272 4 0.0137668 0.00202607 0.51692
501 2 0.131984 0.984111 0.561779
503 4 0.158104 0.974221 0.538968
1050 2 0.162773 0.942696 0.503296
1051 4 0.157214 0.934919 0.538068
1318 4 0.0747626 0.0197495 0.589115
800 4 0.146842 0.0409312 0.665035
798 2 0.165044 0.0416129 0.633912
1303 4 0.282389 0.0448162 0.596194
1302 2 0.268691 0.0143034 0.609675
175 4 0.413289 0.0660328 0.611788
579 2 0.355642 0.0833208 0.589277
581 4 0.356905 0.0983675 0.622025
174 2 0.434951 0.0910729 0.597501
1401 2 0.00375236 0.221414 0.587724
1232 4 0.288363 0.181445 0.610647
1230 2 0.314678 0.178974 0.63518
1231 4 0.340992 0.176503 0.659713
485 4 0.44638 0.211641 0.647676
1114 4 0.4723 0.794251 0.507838
483 2 0.472853 0.209153 0.623317
1285 4 0.492683 0.245148 0.580544
454 4 0.368056 0.297556 0.597585
453 2 0.366069 0.325395 0.620421
142 4 0.0611198 0.390312 0.64153
141 2 0.0906233 0.40684 0.629008
455 4 0.364081 0.353233 0.643256
838 4 0.386506 0.371832 0.660566
837 2 0.418355 0.357313 0.66924
562 4 0.0137871 0.487295 0.596996
143 4 0.120127 0.423368 0.616486
1092 2 0.232583 0.444215 0.618508
1093 4 0.241653 0.447907 0.653214
1040 4 0.25087 0.48538 0.657471
1038 2 0.253724 0.496291 0.691723
320 4 0.419787 0.48236 0.6211
1240 4 0.414349 0.4692 0.652732
561 2 0.0355407 0.51575 0.601174
563 4 0.0572951 0.544206 0.605352
835 4 0.0949098 0.560758 0.619662
834 2 0.0946601 0.533704 0.643503
836 4 0.0944094 0.506649 0.667344
294 2 0.171349 0.549043 0.665062
296 4 0.169298 0.562707 0.631753
318 2 0.406199 0.493432 0.589586
325 4 0.33866 0.586602 0.642253
71 4 0.112003 0.58226 0.57663
195 2 0.106169 0.648602 0.595801
136 4 0.193451 0.623345 0.662589
324 2 0.340269 0.621815 0.634647
326 4 0.341878 0.657029 0.627041
1047 2 0.406097 0.661959 0.596775
1048 4 0.370088 0.662817 0.598518
1049 4 0.442106 0.661101 0.595032
397 4 0.463509 0.647305 0.622804
396 2 0.484524 0.624245 0.640889
196 4 0.0934923 0.676766 0.614416
1363 4 0.101832 0.702985 0.557349
1295 4 0.0447982 0.751961 0.656382
958 4 0.118147 0.695905 0.5859
957 2 0.140957 0.723503 0.5902
959 4 0.163767 0.7511 0.5945
1262 4 0.325097 0.67413 0.594026
1260 2 0.337843 0.702139 0.612826
1261 4 0.35059 0.730148 0.631626
719 4 0.0839774 0.82705 0.575441
1293 2 0.0112997 0.757146 0.668685
781 4 0.10153 0.804609 0.623392
496 4 0.107182 0.796196 0.591693
775 4 0.216102 0.813471 0.64161
774 2 0.251804 0.817162 0.63813
717 2 0.0736198 0.861421 0.572009
681 2 0.00552916 0.839062 0.658655
718 4 0.0632626 0.895792 0.568576
1451 4 0.118865 0.896918 0.608018
865 4 0.153035 0.886491 0.604597
1489 4 0.312737 0.846387 0.630634
776 4 0.287507 0.820852 0.63465
1488 2 0.344611 0.854581 0.645375
1490 4 0.376486 0.862775 0.660116
1423 4 0.0795757 0.988766 0.61501
1422 2 0.0702007 0.992692 0.649606
502 4 0.105867 0.994001 0.584588
1449 2 0.127897 0.928938 0.621931
1450 4 0.136928 0.960958 0.635843
799 4 0.183246 0.0422944 0.602789
1304 4 0.254993 0.983791 0.623156
58 4 0.434144 0.927199 0.614125
57 2 0.466695 0.942406 0.617228
59 4 0.499245 0.957613 0.620332
974 4 0.078065 0.0177028 0.702699
973 4 0.0322351 0.0581501 0.740977
972 2 0.0551499 0.0379261 0.721838
415 4 0.465003 0.0170793 0.704005
414 2 0.438093 0.0229222 0.680721
416 4 0.411183 0.0287651 0.657439
419 4 0.327317 0.238963 0.99268
28 3 0.243795 0.0975243 0.696921
26 1 0.246149 0.127188 0.712232
27 3 0.216751 0.142474 0.710579
30 3 0.254365 0.122914 0.743744
29 3 0.26908 0.146157 0.696926
697 4 0.289118 0.13527 0.725619
696 2 0.319415 0.149705 0.738816
698 4 0.349712 0.164139 0.752014
376 4 0.267183 0.100187 0.983147
839 4 0.450203 0.342793 0.677914
919 4 0.235499 0.438476 0.724844
1039 4 0.256578 0.507202 0.725976
880 4 0.260055 0.455065 0.744562
879 2 0.295026 0.447272 0.740476
881 4 0.329997 0.439478 0.736391
331 4 0.356002 0.463237 0.726096
330 2 0.383265 0.442075 0.736551
1239 2 0.428348 0.486173 0.681304
295 4 0.1734 0.535379 0.698371
883 4 0.351356 0.570944 0.683036
884 4 0.404642 0.523472 0.693468
882 2 0.377999 0.547208 0.688252
1241 4 0.442347 0.503146 0.709876
712 4 0.450618 0.540579 0.67687
711 2 0.483525 0.553108 0.684649
676 4 0.0768555 0.641768 0.746015
92 4 0.112952 0.63421 0.758789
90 2 0.137797 0.624795 0.734408
91 4 0.162643 0.615379 0.710026
135 2 0.194447 0.659248 0.65937
137 4 0.195443 0.695152 0.65615
782 4 0.15563 0.821646 0.66794
780 2 0.12858 0.813127 0.645666
24 3 0.198885 0.834543 0.687815
21 1 0.193895 0.801564 0.690532
25 3 0.161792 0.794892 0.688616
23 3 0.206134 0.790519 0.719654
22 3 0.20974 0.786241 0.665737
683 4 0.0134631 0.818592 0.687264
1084 4 0.398647 0.86235 0.689528
1083 2 0.399872 0.853632 0.724498
499 4 0.325529 0.845353 0.729168
1085 4 0.401097 0.844915 0.759468
1424 4 0.0608234 0.996615 0.684204
551 4 0.215365 0.0300871 0.761519
549 2 0.230659 0.0153239 0.732389
1390 4 0.160236 0.11038 0.77901
1391 4 0.171933 0.0477478 0.812804
1389 2 0.166084 0.079064 0.795907
104 4 0.346155 0.0755938 0.826122
55 4 0.377291 0.0522061 0.829906
102 2 0.345856 0.110402 0.816703
103 4 0.345557 0.14521 0.807284
1298 4 0.372812 0.145967 0.772577
1296 2 0.40229 0.158737 0.756194
1264 4 0.0397663 0.20532 0.821608
863 4 0.156123 0.225846 0.83467
862 4 0.209598 0.192162 0.799922
861 2 0.18286 0.209004 0.817296
385 4 0.303976 0.195957 0.819827
611 4 0.387733 0.216409 0.8147
1297 4 0.431768 0.171506 0.739811
609 2 0.395084 0.248167 0.799281
610 4 0.402435 0.279926 0.783861
1249 4 0.397514 0.311177 0.803114
1248 2 0.432663 0.317648 0.798309
1250 4 0.467812 0.324119 0.793505
918 2 0.202174 0.449515 0.733091
920 4 0.16885 0.460554 0.741338
332 4 0.410527 0.420913 0.747007
1356 2 0.396721 0.576188 0.787291
1358 4 0.374535 0.56861 0.814691
675 2 0.0554643 0.64871 0.774204
677 4 0.0340731 0.655651 0.802393
646 4 0.0135697 0.621337 0.793132
1322 4 0.251519 0.596796 0.768573
1321 4 0.30129 0.646422 0.752395
1320 2 0.276404 0.621609 0.760484
1357 4 0.418907 0.583765 0.759891
1148 4 0.433501 0.614042 0.777869
1146 2 0.459927 0.63718 0.786035
1427 4 0.00609882 0.735189 0.747888
1425 2 0.0126708 0.729546 0.782894
1426 4 0.0192424 0.723904 0.817899
992 4 0.237474 0.806018 0.8336
687 2 0.292682 0.719045 0.763977
688 4 0.317905 0.693475 0.767193
1147 4 0.486353 0.660319 0.794201
694 4 0.150122 0.771831 0.801036
693 2 0.115345 0.780073 0.796243
695 4 0.0805669 0.788316 0.791449
990 2 0.249063 0.796607 0.800773
498 2 0.32932 0.822329 0.756663
689 4 0.267458 0.744616 0.76076
500 4 0.333111 0.799305 0.784157
730 4 0.425918 0.754494 0.7816
729 2 0.429625 0.754992 0.817467
260 4 0.0632938 0.866231 0.814968
259 4 0.0496591 0.857719 0.74466
258 2 0.0564769 0.861975 0.779814
1181 4 0.15641 0.905687 0.79601
451 4 0.134695 0.894221 0.824128
1393 4 0.325427 0.946048 0.790883
1392 2 0.309199 0.924069 0.767345
910 4 0.470123 0.917684 0.752554
1180 4 0.137308 0.969443 0.768224
1179 2 0.146859 0.937565 0.782117
550 4 0.245952 0.000560315 0.703259
1394 4 0.292971 0.902091 0.743807
909 2 0.460733 0.952053 0.758124
911 4 0.451343 0.986422 0.763693
54 2 0.372778 0.0349907 0.86127
56 4 0.368265 0.0177758 0.892634
702 2 0.402969 0.117929 0.870366
703 4 0.395445 0.149181 0.886709
704 4 0.410492 0.0866764 0.854024
850 4 0.140596 0.247223 0.859665
384 2 0.312319 0.206816 0.853186
386 4 0.320663 0.217675 0.886547
1234 4 0.357333 0.216776 0.891
1233 2 0.386798 0.195987 0.890813
1235 4 0.416263 0.175198 0.890626
871 4 0.0556547 0.309994 0.870027
870 2 0.0433195 0.28473 0.89261
872 4 0.0309851 0.259465 0.915193
849 2 0.115284 0.272285 0.865286
851 4 0.0899718 0.297347 0.870907
732 2 0.030534 0.43031 0.878284
733 4 0.994779 0.431042 0.873651
754 4 0.258553 0.394531 0.887965
64 4 0.409472 0.425561 0.905692
63 2 0.422226 0.425686 0.871961
734 4 0.0662896 0.429577 0.882916
1291 4 0.10515 0.43208 0.883554
1290 2 0.139547 0.439716 0.875872
1292 4 0.173942 0.447352 0.868191
755 4 0.202546 0.431645 0.861748
753 2 0.230549 0.413088 0.874857
1512 2 0.375862 0.476632 0.916777
1513 4 0.383369 0.448302 0.895767
65 4 0.434979 0.425811 0.838231
752 4 0.299186 0.51173 0.92332
1514 4 0.368355 0.504963 0.937787
956 4 0.381649 0.65547 0.903996
1247 4 0.486713 0.632566 0.837806
1072 4 0.483896 0.662644 0.851319
351 2 0.142659 0.699537 0.871397
353 4 0.110407 0.707078 0.857137
352 4 0.174912 0.691996 0.885656
955 4 0.328033 0.698637 0.882465
954 2 0.354841 0.677053 0.89323
1073 4 0.444568 0.722501 0.859803
1071 2 0.464232 0.692572 0.855561
731 4 0.433331 0.75549 0.853333
991 4 0.260652 0.787196 0.767947
267 2 0.285461 0.842876 0.9127
802 4 0.0382612 0.850843 0.841086
803 4 0.0182722 0.890753 0.897737
801 2 0.0282666 0.870798 0.869412
452 4 0.192401 0.880213 0.86506
450 2 0.163548 0.887217 0.844594
268 4 0.268371 0.862483 0.887722
1041 2 0.22788 0.975391 0.894672
1042 4 0.207748 0.959922 0.869062
1043 4 0.248011 0.99086 0.920281
1417 4 0.343309 0.991206 0.891295
1418 4 0.384749 0.932179 0.890921
1416 2 0.364029 0.961692 0.891108
897 2 0.490913 0.941522 0.904298
899 4 0.489016 0.965284 0.877239
160 4 0.0907973 0.0637539 0.992199
1211 4 0.204149 0.0250731 0.935698
1209 2 0.197845 0.0597818 0.928217
1164 2 0.284122 0.0116363 0.989219
1349 4 0.417813 0.0352092 0.960278
1348 4 0.462511 0.0261834 0.904401
1347 2 0.440162 0.0306962 0.932339
1210 4 0.191541 0.0944897 0.920735
664 4 0.169917 0.121364 0.918
663 2 0.165747 0.149845 0.93972
1433 4 0.104117 0.225306 0.981881
20 3 0.0536566 0.179904 0.986342
665 4 0.161577 0.178327 0.961441
229 4 0.0220106 0.799998 0.612812
417 2 0.325682 0.244193 0.957038
1432 4 0.0568971 0.232434 0.927834
1431 2 0.0805071 0.22887 0.954857
418 4 0.324046 0.249422 0.921395
241 4 0.999506 0.396431 0.931197
705 2 0.408759 0.390976 0.982329
706 4 0.425773 0.382757 0.951614
1315 4 0.124097 0.483938 0.966515
512 4 0.480663 0.49559 0.993891
1316 4 0.0570524 0.510478 0.968042
1314 2 0.0905745 0.497208 0.967279
750 2 0.313804 0.54039 0.939608
751 4 0.328423 0.569051 0.955896
650 4 0.375356 0.546481 0.982935
1116 2 0.395749 0.56034 0.931112
1118 4 0.374623 0.535796 0.915247
1117 4 0.416874 0.584884 0.946978
510 2 0.465784 0.502834 0.961851
511 4 0.450906 0.510078 0.929811
314 4 0.443593 0.579479 0.972127
312 2 0.469053 0.590094 0.9489
262 4 0.157777 0.645047 0.966386
337 4 0.129659 0.669197 0.955567
261 2 0.175541 0.672329 0.981895
623 4 0.0420614 0.675636 0.952748
621 2 0.0130067 0.688189 0.97003
338 4 0.0713485 0.696775 0.987831
336 2 0.100503 0.682986 0.971699
269 4 0.302552 0.823269 0.937678
194 4 0.440021 0.804956 0.951801
1503 2 0.36199 0.952061 0.973371
192 2 0.457307 0.789599 0.979473
1430 4 0.0260974 0.832449 0.972018
1412 4 0.460055 0.882297 0.986043
250 4 0.481771 0.896613 0.961625
1410 2 0.427762 0.886396 0.00154457
1165 4 0.288177 0.00557815 0.953903
1090 4 0.191178 0.0459721 0.992884
375 2 0.244402 0.127015 0.991004
158 4 0.321948 0.142322 0.981577
156 2 0.31567 0.1759 0.993132
263 4 0.193304 0.699612 0.997403
1468 4 0.351005 0.783863 0.997433
1504 4 0.331508 0.932794 0.973222
387 2 0.666561 0.0207564 0.0297259
278 4 0.644081 0.07921 0.027742
388 4 0.640548 0.0447553 0.0366401
773 4 0.844617 0.0273292 0.078213
771 2 0.879107 0.0222796 0.0874513
1004 4 0.997222 0.297137 0.502458
475 4 0.857593 0.115145 0.0537455
474 2 0.877665 0.123655 0.0250213
445 4 0.521093 0.970593 0.284381
1353 2 0.950766 0.149085 0.021114
1354 4 0.985449 0.139632 0.0239681
1110 2 0.826401 0.210516 0.0736708
1111 4 0.801596 0.18443 0.0715154
1032 2 0.972302 0.240555 0.041114
493 4 0.506691 0.180584 0.284574
405 2 0.711438 0.273652 0.0744086
407 4 0.725427 0.27702 0.0413419
1034 4 0.941693 0.258418 0.0477769
1096 4 0.958475 0.268746 0.0756104
516 2 0.574785 0.372949 0.0431713
518 4 0.586825 0.391183 0.0144841
517 4 0.562745 0.354715 0.0718584
577 4 0.774124 0.432315 0.0339087
578 4 0.80911 0.377397 0.0649188
576 2 0.791617 0.404856 0.0494137
449 4 0.618156 0.793559 0.493965
234 2 0.874574 0.372736 0.0668252
236 4 0.895484 0.399819 0.0782147
235 4 0.853665 0.345653 0.055436
845 4 0.534793 0.453025 0.0799101
843 2 0.504715 0.458764 0.0608637
1161 2 0.94779 0.427391 0.0672032
1162 4 0.945189 0.422188 0.0316145
1439 4 0.981313 0.421857 0.0307547
807 2 0.585202 0.550836 0.0784575
808 4 0.575635 0.518057 0.0900521
804 2 0.998346 0.623219 0.150471
292 4 0.701471 0.508595 0.00585751
291 2 0.724225 0.513863 0.0333336
293 4 0.746979 0.519132 0.0608093
809 4 0.594769 0.583614 0.0668633
875 4 0.509253 0.117432 0.0699591
178 4 0.825844 0.75566 0.501516
603 2 0.508591 0.766581 0.0299324
1199 4 0.626015 0.782577 0.0146572
575 4 0.949083 0.777384 0.0372258
573 2 0.97741 0.785458 0.0580286
1492 4 0.560739 0.86654 0.0647491
1254 2 0.601338 0.86023 0.0029705
1255 4 0.578928 0.866805 0.0304481
39 3 0.884303 0.922235 0.0230385
389 4 0.692573 0.996757 0.0228116
94 4 0.692235 0.985891 0.0596151
598 4 0.799819 0.955266 0.0770815
599 4 0.862867 0.929685 0.0531585
597 2 0.831343 0.942475 0.06512
805 4 0.996706 0.634272 0.116184
793 4 0.913643 0.976435 0.0930186
38 3 0.927838 0.949706 0.00421043
93 2 0.722692 0.987638 0.0788436
95 4 0.753149 0.989386 0.0980722
1153 4 0.74657 0.0238034 0.101296
1152 2 0.761667 0.0558893 0.107852
1270 4 0.00742145 0.0502255 0.104355
459 2 0.719492 0.157539 0.172443
461 4 0.726454 0.122208 0.170526
1154 4 0.776764 0.0879758 0.114409
787 4 0.79912 0.117711 0.11147
786 2 0.831648 0.109087 0.0985098
788 4 0.864176 0.100462 0.0855504
460 4 0.71253 0.19287 0.174358
122 4 0.810827 0.198721 0.185841
1112 4 0.851206 0.236602 0.0758259
406 4 0.69745 0.270284 0.107475
1097 4 0.931365 0.317572 0.121248
1095 2 0.94492 0.293159 0.0984288
1163 4 0.95039 0.432595 0.102792
1227 2 0.663662 0.529661 0.101439
1228 4 0.666119 0.493781 0.0988031
1229 4 0.661205 0.565542 0.104076
534 2 0.57032 0.624851 0.119777
536 4 0.559971 0.651729 0.141476
535 4 0.580668 0.597972 0.0980779
737 4 0.741277 0.554576 0.072307
735 2 0.770101 0.558931 0.0935346
736 4 0.798925 0.563286 0.114762
929 4 0.65278 0.665404 0.143555
1212 2 0.956702 0.723263 0.145269
1214 4 0.942 0.714106 0.113639
1493 4 0.569428 0.82129 0.120234
985 4 0.803816 0.815456 0.146894
984 2 0.773711 0.831322 0.134962
373 4 0.952628 0.796778 0.105951
372 2 0.972054 0.804041 0.135451
1491 2 0.565083 0.843915 0.0924918
456 2 0.749961 0.917507 0.126646
986 4 0.743606 0.847187 0.12303
457 4 0.742394 0.883799 0.116305
458 4 0.757528 0.951215 0.136987
772 4 0.913597 0.0172292 0.09669
1279 4 0.982356 0.934036 0.136297
794 4 0.948857 0.923342 0.126823
792 2 0.93125 0.949888 0.109921
714 2 0.759504 0.304623 0.0128634
962 4 0.701713 0.0361053 0.229688
960 2 0.69588 0.0597376 0.203082
961 4 0.690047 0.0833695 0.176476
1193 4 0.760892 0.010043 0.197183
1128 2 0.781486 0.0691241 0.196077
1129 4 0.7679 0.0399641 0.179782
1100 4 0.897735 0.00857641 0.225925
1098 2 0.914415 0.0333581 0.246126
1099 4 0.931095 0.058139 0.266328
853 4 0.624189 0.137612 0.213309
852 2 0.657732 0.130224 0.224294
854 4 0.691275 0.122836 0.23528
120 2 0.810979 0.163626 0.19413
121 4 0.811132 0.128531 0.20242
1130 4 0.795071 0.0982843 0.212371
132 2 0.898337 0.174335 0.233444
1397 4 0.666823 0.228683 0.247941
134 4 0.924493 0.191092 0.215129
1373 4 0.00887983 0.281077 0.222254
978 2 0.546601 0.39639 0.186494
979 4 0.554183 0.361184 0.188344
980 4 0.539019 0.431597 0.184644
890 4 0.704384 0.401371 0.231689
888 2 0.703209 0.399429 0.1957
889 4 0.702034 0.397487 0.15971
1027 4 0.994536 0.364792 0.206765
1028 4 0.955743 0.422667 0.225396
1026 2 0.975139 0.393729 0.216081
427 4 0.516321 0.457608 0.172952