ITEM: TIMESTEP
64500
ITEM: NUMBER OF ATOMS
1520
ITEM: BOX BOUNDS pp pp pp
-6.9326749999999997e+00 6.9326749999999997e+00
-6.9326749999999997e+00 6.9326749999999997e+00
-6.9326749999999997e+00 6.9326749999999997e+00
ITEM: ATOMS id type xs ys zs
397 4 0.194741 0.0771816 0.0559684
1146 2 0.364561 0.0433541 0.0652009
1147 4 0.366676 0.0506684 0.0299527
226 4 0.463574 0.0436738 0.0105022
497 4 0.469427 0.079787 0.997086
976 4 0.484983 0.924321 0.477707
644 4 0.454021 0.0297502 0.0434851
642 2 0.452204 0.0311585 0.079473
1463 4 0.205838 0.1035 0.0321143
1461 2 0.179046 0.10134 0.00807412
396 2 0.229779 0.0778905 0.0644683
251 4 0.00360355 0.80381 0.248909
398 4 0.264817 0.0785996 0.072968
495 2 0.472068 0.11484 0.00513062
496 4 0.47471 0.149893 0.0131755
830 4 0.159581 0.231903 0.0324485
828 2 0.160209 0.19789 0.0444126
829 4 0.160837 0.163877 0.0563767
778 4 0.180711 0.247496 0.00711012
499 4 0.394574 0.21171 0.00414853
220 4 0.199804 0.336803 0.0477974
779 4 0.2081 0.301921 0.0457036
777 2 0.194406 0.274709 0.0264068
347 4 0.422123 0.281671 0.0434978
345 2 0.444832 0.280444 0.0155122
221 4 0.136919 0.364095 0.0253859
219 2 0.168361 0.350449 0.0365916
453 2 0.250218 0.398595 0.00208149
177 2 0.309732 0.422494 0.0436559
193 4 0.426491 0.355337 0.0201186
192 2 0.403259 0.367329 0.0449555
178 4 0.345034 0.415332 0.0453497
194 4 0.380027 0.379322 0.0697923
885 2 0.482863 0.353875 0.0835249
886 4 0.447184 0.34865 0.0831592
270 2 0.0658727 0.446739 0.028006
272 4 0.0798245 0.4366 0.059676
1396 4 0.121109 0.435856 0.0753744
387 2 0.217476 0.466138 0.0676483
388 4 0.252345 0.466587 0.0584612
389 4 0.182607 0.465689 0.0768357
454 4 0.246787 0.424067 0.0273753
179 4 0.274431 0.429656 0.0419626
277 4 0.0574926 0.587403 0.0117728
232 4 0.145625 0.545913 0.0491457
664 4 0.14376 0.51945 0.0277945
1499 4 0.205256 0.551609 0.0403849
460 4 0.1793 0.569016 0.00996266
1497 2 0.225999 0.55015 0.0698479
278 4 0.0992549 0.566669 0.066797
276 2 0.0783738 0.577036 0.0392849
472 4 0.202365 0.666617 0.0172295
461 4 0.202948 0.634078 0.0301937
459 2 0.191124 0.601547 0.0200779
157 4 0.417364 0.607855 0.0206541
430 4 0.444164 0.606115 0.0438739
429 2 0.476923 0.604632 0.0588739
44 3 0.408391 0.708298 0.0140709
43 3 0.458228 0.687238 0.022856
1204 4 0.00198084 0.381225 0.0352435
137 4 0.463868 0.731037 0.0648736
41 1 0.438885 0.703707 0.00107265
1360 4 0.104955 0.866388 0.0601469
142 4 0.186678 0.797159 0.0769006
130 4 0.372763 0.778543 0.0641482
1359 2 0.0843134 0.889612 0.0784492
1361 4 0.063672 0.912836 0.0967516
107 4 0.356331 0.900781 0.0121058
300 2 0.142258 0.978729 0.0284482
302 4 0.165428 0.984557 0.0554582
200 4 0.181372 0.993834 0.0838117
294 2 0.0067465 0.0799303 0.0782554
295 4 0.0316323 0.0677716 0.101348
843 2 0.32931 0.0411921 0.161063
1148 4 0.362446 0.0360398 0.100449
845 4 0.353329 0.0443668 0.134353
643 4 0.450387 0.0325667 0.115461
1163 4 0.338679 0.104699 0.164541
1305 2 0.0245055 0.176609 0.165587
1306 4 0.999344 0.197377 0.150224
1397 4 0.161598 0.490563 0.0992381
1395 2 0.141354 0.46321 0.0873065
334 4 0.428464 0.485151 0.154543
1508 4 0.498162 0.961316 0.472979
364 4 0.0658152 0.586989 0.0996294
231 2 0.147708 0.54544 0.0851432
233 4 0.149791 0.544968 0.121141
1498 4 0.246741 0.54869 0.0993109
89 4 0.271697 0.55989 0.127922
87 2 0.304082 0.575519 0.125196
88 4 0.336466 0.591147 0.12247
4 3 0.379471 0.577071 0.161709
1 1 0.39057 0.568808 0.131238
5 3 0.403101 0.53845 0.131728
365 4 0.016838 0.604893 0.149453
363 2 0.0413264 0.595941 0.124541
992 4 0.0309139 0.641796 0.152324
297 2 0.232648 0.617316 0.132374
299 4 0.203722 0.618834 0.153855
298 4 0.261573 0.615797 0.110894
3 3 0.4139 0.590631 0.121271
2 3 0.365157 0.569798 0.109934
185 4 0.389985 0.721144 0.142146
135 2 0.493369 0.728552 0.0854625
184 4 0.446669 0.720355 0.0975595
183 2 0.418327 0.72075 0.119853
143 4 0.255473 0.804649 0.0972165
141 2 0.221076 0.800904 0.0870586
131 4 0.391061 0.794797 0.131991
129 2 0.381912 0.78667 0.0980695
119 4 0.456128 0.824425 0.158803
117 2 0.451597 0.7916 0.144574
118 4 0.447065 0.758777 0.130345
126 2 0.428717 0.862359 0.121274
127 4 0.397305 0.876509 0.110621
128 4 0.460128 0.848209 0.131928
198 2 0.184288 0.961125 0.0987122
406 4 0.213081 0.918861 0.135065
199 4 0.187204 0.928416 0.113613
417 2 0.063447 0.997542 0.196615
289 4 0.0636222 0.0470449 0.23407
418 4 0.0666418 0.0329502 0.202651
288 2 0.0329637 0.064752 0.240919
844 4 0.305291 0.0380174 0.187773
1298 4 0.462946 0.0689037 0.251382
804 2 0.449724 0.0518878 0.213136
806 4 0.455574 0.0178188 0.202866
223 4 0.0813042 0.168409 0.206429
1307 4 0.0496628 0.155836 0.180928
290 4 0.00230472 0.0824594 0.247768
222 2 0.105048 0.145506 0.191878
224 4 0.128806 0.122606 0.177331
1162 4 0.311389 0.157092 0.205916
1161 2 0.325034 0.130895 0.185229
805 4 0.443875 0.0859568 0.223407
641 4 0.0409842 0.16216 0.219735
639 2 0.0509619 0.159585 0.254277
286 4 0.153628 0.186847 0.251751
240 2 0.0473738 0.296578 0.243298
304 4 0.166869 0.292641 0.251976
303 2 0.164561 0.320448 0.229133
173 4 0.454506 0.303072 0.198487
171 2 0.462366 0.268149 0.194123
172 4 0.470225 0.233227 0.189758
241 4 0.044552 0.332526 0.24294
269 4 0.0725744 0.362982 0.173638
267 2 0.0550451 0.392033 0.185851
305 4 0.162254 0.348255 0.206289
268 4 0.0375158 0.421085 0.198063
374 4 0.0992761 0.494165 0.163001
373 4 0.111241 0.562755 0.181813
372 2 0.105258 0.52846 0.172407
238 4 0.207224 0.593447 0.226392
332 4 0.279513 0.523091 0.233938
228 2 0.375249 0.560154 0.214697
230 4 0.396877 0.560203 0.185842
229 4 0.353621 0.560105 0.243552
333 2 0.429256 0.517012 0.171415
335 4 0.430049 0.548873 0.188286
601 4 0.492351 0.490039 0.256163
553 4 0.106645 0.622134 0.197608
552 2 0.13808 0.609293 0.209748
237 2 0.237832 0.594907 0.20738
554 4 0.169515 0.596452 0.221887
239 4 0.268439 0.596369 0.188368
796 4 0.262797 0.634826 0.203059
795 2 0.278465 0.662209 0.185593
245 4 0.450012 0.662148 0.193484
991 4 0.0479 0.696362 0.196321
990 2 0.039407 0.669079 0.174322
234 2 0.213779 0.696838 0.239734
235 4 0.196525 0.704213 0.208939
125 4 0.311395 0.708536 0.197622
797 4 0.294133 0.689593 0.168127
236 4 0.231034 0.689462 0.270528
123 2 0.343037 0.720858 0.185482
124 4 0.374679 0.733179 0.173341
243 2 0.480454 0.678403 0.203945
160 4 0.035517 0.824568 0.23477
415 4 0.0452859 0.884733 0.190832
159 2 0.0564737 0.85087 0.22175
161 4 0.0774288 0.877172 0.208731
405 2 0.204411 0.904526 0.166998
407 4 0.19574 0.890191 0.198931
325 4 0.20024 0.880409 0.234702
112 4 0.293188 0.903634 0.221696
253 4 0.427836 0.840706 0.182424
254 4 0.421736 0.903971 0.216512
252 2 0.424786 0.872339 0.199468
419 4 0.0602521 0.962133 0.190579
416 4 0.0247611 0.953808 0.193829
414 2 0.0350233 0.919271 0.19233
764 4 0.177498 0.990875 0.24127
111 2 0.262349 0.915397 0.23622
421 4 0.267485 0.0457159 0.32637
420 2 0.293171 0.0552884 0.30294
422 4 0.318858 0.0648609 0.27951
1296 2 0.481343 0.0778587 0.281078
287 4 0.157939 0.12611 0.290404
285 2 0.155784 0.156479 0.271078
196 4 0.254249 0.142822 0.277576
195 2 0.2552 0.162551 0.307747
640 4 0.0609291 0.157011 0.288838
82 4 0.480211 0.178988 0.275625
81 2 0.474525 0.204557 0.30041
83 4 0.468838 0.230125 0.325195
242 4 0.0501956 0.260629 0.243656
841 4 0.201433 0.29001 0.261177
840 2 0.204638 0.291326 0.297072
842 4 0.207843 0.292642 0.332966
170 4 0.361284 0.325634 0.31219
320 4 0.479654 0.263548 0.325988
1423 4 0.0750421 0.382783 0.31556
1422 2 0.0964576 0.405377 0.333762
322 4 0.368901 0.355184 0.335177
321 2 0.345862 0.382677 0.331465
922 4 0.218703 0.442035 0.333927
71 4 0.195638 0.442546 0.306749
921 2 0.248987 0.437278 0.314937
923 4 0.279272 0.43252 0.295947
330 2 0.293739 0.533737 0.265318
331 4 0.307966 0.544383 0.296697
600 2 0.49432 0.520059 0.276046
602 4 0.496288 0.550079 0.29593
367 4 0.267541 0.668185 0.293204
97 4 0.0343123 0.731157 0.284414
96 2 0.0454857 0.727019 0.31845
104 4 0.340487 0.740955 0.281951
366 2 0.299215 0.685201 0.295957
368 4 0.330889 0.70222 0.298711
997 4 0.414236 0.732037 0.311897
257 4 0.0219331 0.831376 0.272432
255 2 0.0116048 0.814951 0.30283
102 2 0.313044 0.756696 0.299259
103 4 0.285603 0.772435 0.316568
998 4 0.356443 0.772139 0.295978
996 2 0.38534 0.752088 0.303938
326 4 0.148807 0.899447 0.28154
324 2 0.174523 0.889928 0.258121
433 4 0.167789 0.88432 0.310898
205 4 0.109323 0.944073 0.341247
762 2 0.197134 0.966654 0.259386
763 4 0.21677 0.942433 0.277503
113 4 0.23151 0.927161 0.250744
1039 4 0.290681 0.955945 0.313104
1506 2 0.502086 0.968331 0.437825
307 4 0.0266218 0.0716678 0.404568
306 2 0.0234928 0.0369337 0.395393
134 4 0.283226 0.037776 0.419461
258 2 0.0450462 0.135113 0.423112
259 4 0.0163615 0.119324 0.438222
260 4 0.0737314 0.150901 0.408002
425 4 0.0577538 0.181602 0.370901
423 2 0.0899649 0.196812 0.365287
424 4 0.122176 0.212021 0.359672
197 4 0.256151 0.182279 0.337919
382 4 0.248648 0.179436 0.375288
381 2 0.26139 0.192616 0.406342
955 4 0.31025 0.196704 0.359081
956 4 0.353711 0.248748 0.383662
954 2 0.331981 0.222726 0.371372
839 4 0.243612 0.289377 0.334364
837 2 0.259187 0.316858 0.35176
608 4 0.366429 0.317265 0.391564
168 2 0.361509 0.303838 0.340918
169 4 0.361734 0.282043 0.369647
606 2 0.37483 0.337614 0.420127
319 4 0.434422 0.285906 0.377523
318 2 0.457038 0.274727 0.351756
163 4 0.186756 0.394898 0.356216
162 2 0.215089 0.37684 0.369313
164 4 0.243422 0.358781 0.38241
323 4 0.322822 0.410169 0.327753
838 4 0.274761 0.34434 0.369155
70 4 0.147917 0.448921 0.360448
1424 4 0.117873 0.427972 0.351963
69 2 0.171778 0.445734 0.333598
148 4 0.426845 0.442648 0.410268
394 4 0.0166906 0.498915 0.369166
393 2 0.0391158 0.527053 0.371567
395 4 0.0615418 0.555191 0.373968
275 4 0.103792 0.545315 0.37356
801 2 0.350816 0.562265 0.388717
802 4 0.364912 0.538134 0.365927
273 2 0.0966155 0.580492 0.37694
274 4 0.0894386 0.61567 0.38032
524 4 0.0979189 0.647013 0.398946
98 4 0.0566589 0.722882 0.352486
523 4 0.074317 0.693796 0.349389
522 2 0.0861178 0.670404 0.374167
1090 4 0.129629 0.00190643 0.434374
266 4 0.417139 0.812765 0.413547
264 2 0.435682 0.781989 0.410485
265 4 0.454224 0.751212 0.407424
432 2 0.139729 0.898101 0.328874
434 4 0.11167 0.911881 0.346851
188 4 0.224887 0.838192 0.398471
187 4 0.28196 0.872001 0.370165
1040 4 0.300151 0.903958 0.362189
186 2 0.253423 0.855097 0.384318
308 4 0.0203632 0.00220012 0.386219
206 4 0.136262 0.990553 0.389367
204 2 0.122793 0.967312 0.365306
1038 2 0.295416 0.929952 0.337646
139 4 0.397478 0.84066 0.4263
1089 2 0.157444 0.0186074 0.450117
133 4 0.219243 0.0384009 0.45274
132 2 0.251235 0.0380886 0.4361
1091 4 0.185259 0.0353083 0.465859
214 4 0.289577 0.0103733 0.449592
213 2 0.324606 0.0177616 0.453926
215 4 0.359635 0.0251504 0.458259
73 4 0.0989681 0.153628 0.438591
72 2 0.114765 0.150901 0.470893
140 4 0.332055 0.862311 0.447574
138 2 0.364766 0.851485 0.436937
517 4 0.394097 0.115022 0.469198
341 4 0.420179 0.130881 0.452949
92 4 0.156648 0.161635 0.484125
63 2 0.101691 0.231958 0.487492
90 2 0.187728 0.179922 0.484039
91 4 0.218809 0.198208 0.483953
383 4 0.274133 0.205796 0.437396
166 4 0.287926 0.221387 0.467148
165 2 0.265256 0.203855 0.489037
340 4 0.405384 0.201366 0.449132
339 2 0.412781 0.166123 0.45104
64 4 0.091218 0.235751 0.453194
818 4 0.108553 0.296228 0.442135
816 2 0.0794227 0.315167 0.451788
735 2 0.211739 0.325471 0.462206
737 4 0.244634 0.317005 0.450095
817 4 0.0502925 0.334105 0.461441
736 4 0.178845 0.333937 0.474317
149 4 0.391464 0.391758 0.447146
607 4 0.383231 0.357962 0.448689
115 4 0.0479756 0.45307 0.488554
114 2 0.0289564 0.444597 0.459111
116 4 0.00993712 0.436125 0.429668
147 2 0.409154 0.417203 0.428706
1012 4 0.444821 0.451907 0.442576
1011 2 0.458992 0.480088 0.460052
562 4 0.218333 0.575038 0.459953
371 4 0.244707 0.584566 0.438612
1013 4 0.473164 0.508269 0.477528
851 4 0.052108 0.654015 0.4633
868 4 0.110649 0.627323 0.454999
867 2 0.125302 0.625387 0.487892
563 4 0.193462 0.642735 0.459461
561 2 0.205898 0.608887 0.459707
369 2 0.279507 0.593844 0.436796
370 4 0.314306 0.603123 0.434981
803 4 0.33672 0.586396 0.411507
1348 4 0.219582 0.792514 0.493642
849 2 0.039159 0.678843 0.486023
55 4 0.120329 0.676692 0.401758
54 2 0.143494 0.676786 0.429394
56 4 0.16666 0.676879 0.457031
466 4 0.14406 0.799886 0.420283
465 2 0.129211 0.800701 0.453135
467 4 0.114361 0.801516 0.485987
1336 4 0.0600611 0.0237416 0.54356
580 4 0.0279865 0.0294222 0.550423
579 2 0.00416509 0.0440508 0.573203
426 2 0.167352 0.0553402 0.554593
427 4 0.145392 0.0582702 0.52614
428 4 0.189311 0.0524097 0.583046
536 4 0.409014 0.105514 0.569743
518 4 0.406904 0.0961515 0.537619
1234 4 0.436984 0.148754 0.567885
939 2 0.0698457 0.243691 0.566965
941 4 0.103369 0.24029 0.554118
80 4 0.141207 0.202546 0.527434
78 2 0.154734 0.201186 0.560834
65 4 0.112165 0.228164 0.52179
167 4 0.242585 0.186323 0.510925
1233 2 0.466777 0.168473 0.562995
1235 4 0.496571 0.188191 0.558105
542 4 0.154822 0.375216 0.537978
540 2 0.180806 0.366011 0.561227
284 4 0.33929 0.402926 0.548272
283 4 0.296829 0.344641 0.547034
282 2 0.31806 0.373784 0.547653
620 4 0.46394 0.389002 0.564055
618 2 0.471508 0.357379 0.579647
716 4 0.456648 0.404462 0.529871
657 2 0.0105246 0.458589 0.538086
659 4 0.0383742 0.471199 0.51896
1158 2 0.141876 0.499442 0.548265
1159 4 0.171393 0.479199 0.552671
720 2 0.225541 0.498282 0.587394
175 4 0.395994 0.489528 0.548174
1073 4 0.491548 0.47055 0.565235
862 4 0.492017 0.490651 0.51014
715 4 0.458884 0.457871 0.578287
714 2 0.457765 0.431166 0.554079
392 4 0.125244 0.544118 0.568522
1160 4 0.112359 0.519684 0.543859
390 2 0.136091 0.577833 0.561737
721 4 0.249979 0.523994 0.593881
174 2 0.42432 0.500809 0.528918
176 4 0.452647 0.512089 0.509662
391 4 0.146938 0.611548 0.554951
869 4 0.139954 0.62345 0.520785
203 4 0.214646 0.601195 0.560832
1283 4 0.123303 0.738489 0.549307
1088 4 0.112861 0.705481 0.564358
588 2 0.250551 0.734835 0.571055
589 4 0.27853 0.714868 0.56015
634 4 0.356412 0.733268 0.558884
1281 2 0.106819 0.764476 0.530508
1282 4 0.090335 0.790462 0.511709
1349 4 0.225436 0.830641 0.554582
1347 2 0.222509 0.811578 0.524112
697 4 0.329198 0.822723 0.560203
696 2 0.294689 0.83069 0.566987
635 4 0.350797 0.803124 0.541848
633 2 0.353605 0.768196 0.550366
653 4 0.0722216 0.867423 0.55977
651 2 0.0990078 0.87847 0.538301
652 4 0.125794 0.889517 0.516833
1402 4 0.243193 0.895139 0.498723
1401 2 0.220409 0.922532 0.504283
698 4 0.26018 0.838658 0.573771
1335 2 0.0828574 0.996706 0.550614
1337 4 0.105655 0.96967 0.557668
1403 4 0.197624 0.949925 0.509844
1312 4 0.189465 0.0785593 0.60385
1311 2 0.206539 0.0866741 0.634558
1313 4 0.223613 0.0947893 0.665266
535 4 0.359365 0.118136 0.62051
534 2 0.38419 0.111825 0.595126
316 4 0.370734 0.0918683 0.64129
355 4 0.00211106 0.236605 0.576755
1520 4 0.413753 0.944806 0.933937
565 4 0.150049 0.220916 0.613929
79 4 0.168262 0.199826 0.594234
490 4 0.2837 0.223031 0.582742
489 2 0.300514 0.241764 0.608564
491 4 0.317328 0.260497 0.634386
940 4 0.0363224 0.247093 0.579811
564 2 0.16724 0.248372 0.629773
566 4 0.184431 0.275827 0.645619
378 2 0.21409 0.326324 0.65755
380 4 0.197167 0.304863 0.634025
619 4 0.479076 0.325756 0.595239
541 4 0.20679 0.356806 0.584477
1435 4 0.113341 0.493009 0.663782
722 4 0.201103 0.472569 0.580908
1434 2 0.136714 0.508586 0.641166
1436 4 0.160087 0.524162 0.61855
201 2 0.228033 0.616746 0.590486
202 4 0.24142 0.632298 0.620139
1465 4 0.223245 0.639882 0.649437
376 4 0.4884 0.637573 0.631057
375 2 0.489106 0.646178 0.666069
1380 2 0.0437592 0.672819 0.659303
1087 4 0.0566756 0.683866 0.604078
1382 4 0.0311412 0.677685 0.625873
1196 4 0.0115633 0.732707 0.589076
1086 2 0.084768 0.694674 0.584218
590 4 0.222572 0.754801 0.58196
672 2 0.399951 0.697648 0.599759
674 4 0.382732 0.70306 0.630978
673 4 0.417171 0.692237 0.568541
1194 2 0.0355065 0.755785 0.603024
1195 4 0.0594498 0.778862 0.616972
486 2 0.0583769 0.84422 0.595407
487 4 0.0690362 0.810962 0.604389
782 4 0.171723 0.801312 0.651924
781 4 0.189313 0.762584 0.59368
780 2 0.180518 0.781948 0.622802
910 4 0.419881 0.802012 0.663669
1172 4 0.44066 0.83266 0.650157
488 4 0.047718 0.877478 0.586426
1469 4 0.0824602 0.926071 0.643484
654 2 0.338919 0.908588 0.675708
655 4 0.373851 0.903618 0.668259
683 4 0.401242 0.925885 0.650974
1170 2 0.432855 0.867687 0.653705
1171 4 0.42505 0.902714 0.657254
1467 2 0.0812937 0.941715 0.611014
1468 4 0.080127 0.957359 0.578544
681 2 0.423395 0.945762 0.630613
682 4 0.445548 0.965639 0.610252
1473 2 0.0104353 0.0165305 0.705506
1475 4 0.00372961 0.0518047 0.708849
748 4 0.292319 0.0184356 0.721913
747 2 0.314929 0.0453769 0.729874
749 4 0.337538 0.0723183 0.737833
315 2 0.353004 0.0798297 0.670292
317 4 0.335274 0.067791 0.699295
773 4 0.235043 0.112536 0.692492
771 2 0.267744 0.126022 0.685477
772 4 0.300444 0.139507 0.678462
689 4 0.488766 0.137855 0.686427
687 2 0.464147 0.124993 0.709424
688 4 0.439528 0.112131 0.732422
568 4 0.227668 0.223472 0.749957
533 4 0.190646 0.231012 0.749252
567 2 0.259899 0.208102 0.744922
450 2 0.318837 0.240901 0.699214
569 4 0.29213 0.192732 0.739887
451 4 0.310798 0.222339 0.729068
537 2 0.407447 0.250967 0.724089
539 4 0.396047 0.218096 0.714604
677 4 0.0128769 0.311835 0.720754
452 4 0.326876 0.259463 0.669361
476 4 0.404162 0.319157 0.736164
1310 4 0.482918 0.279582 0.727478
1308 2 0.500744 0.272783 0.696876
379 4 0.231015 0.347785 0.681074
481 4 0.201733 0.343927 0.700291
480 2 0.178075 0.346527 0.727382
438 2 0.400574 0.41638 0.744067
559 4 0.446014 0.370155 0.694376
558 2 0.475101 0.378162 0.674621
439 4 0.40768 0.444426 0.722545
1186 4 0.395708 0.472238 0.718329
610 4 0.497255 0.422067 0.66387
1185 2 0.421267 0.497561 0.720748
1208 4 0.444892 0.895194 0.984307
1187 4 0.446826 0.522885 0.723166
946 4 0.47201 0.532369 0.696053
1381 4 0.0563769 0.667953 0.692732
1351 4 0.125189 0.65525 0.686056
1350 2 0.127568 0.631258 0.712872
1352 4 0.129947 0.607265 0.739688
377 4 0.489813 0.654784 0.701081
1464 2 0.212833 0.661816 0.676099
1466 4 0.202422 0.683751 0.702762
909 2 0.416298 0.798966 0.699422
911 4 0.412715 0.795921 0.735176
1340 4 0.399173 0.896427 0.726581
1474 4 0.0171409 0.981256 0.702164
592 4 0.0921821 0.947668 0.748809
505 4 0.122254 0.968918 0.742589
656 4 0.303987 0.913557 0.683157
660 2 0.283461 0.969716 0.710256
662 4 0.270961 0.992701 0.735072
661 4 0.295961 0.946732 0.68544
1338 2 0.394105 0.931515 0.73318
1339 4 0.389037 0.966603 0.739778
506 4 0.126925 0.0226355 0.790487
725 4 0.165927 0.0196645 0.800077
723 2 0.199853 0.0116098 0.809277
724 4 0.233777 0.00355523 0.818477
521 4 0.333045 0.0768122 0.799194
1330 4 0.152687 0.134597 0.783492
1329 2 0.131602 0.157303 0.801939
519 2 0.331042 0.111685 0.808156
520 4 0.329038 0.146557 0.817118
109 4 0.416414 0.111381 0.76029
1484 4 0.476754 0.100335 0.827085
108 2 0.432301 0.116786 0.792208
110 4 0.448188 0.122192 0.824127
713 4 0.0878137 0.20969 0.836731
532 4 0.173606 0.163565 0.768283
1331 4 0.110518 0.18001 0.820387
531 2 0.182126 0.197289 0.758768
28 3 0.0859086 0.287639 0.837331
538 4 0.418847 0.283838 0.733574
761 4 0.449416 0.336264 0.813234
1372 4 0.47856 0.274447 0.765411
482 4 0.154416 0.349127 0.754473
1478 4 0.296205 0.361423 0.772532
1476 2 0.327589 0.378061 0.766316
440 4 0.393468 0.388332 0.765589
1477 4 0.358973 0.394699 0.760099
474 2 0.424971 0.337125 0.759498
475 4 0.445781 0.355093 0.782833
759 2 0.470704 0.364348 0.820885
1206 2 0.443847 0.911578 0.952199
614 4 0.296221 0.425347 0.81536
1391 4 0.374132 0.501662 0.829533
1390 4 0.313622 0.508999 0.790981
1389 2 0.343877 0.50533 0.810257
478 4 0.29245 0.661758 0.827234
625 4 0.00801865 0.702849 0.791267
1178 4 0.0429785 0.711101 0.786699
1176 2 0.0753123 0.726665 0.790263
1177 4 0.107646 0.742229 0.793826
636 2 0.167275 0.730264 0.822661
744 2 0.308239 0.698977 0.777228
746 4 0.286536 0.681862 0.800389
745 4 0.329942 0.716092 0.754067
493 4 0.40441 0.751309 0.820464
638 4 0.144427 0.739659 0.796392
622 4 0.279019 0.807327 0.793745
464 4 0.248647 0.830318 0.78161
621 2 0.30933 0.791204 0.804776
623 4 0.339642 0.77508 0.815807
515 4 0.355249 0.807263 0.815169
513 2 0.375549 0.836911 0.818212
492 2 0.418978 0.768983 0.792611
494 4 0.433545 0.786658 0.764757
593 4 0.0902289 0.894602 0.797613
463 4 0.280993 0.890453 0.758388
462 2 0.26482 0.860386 0.769999
401 4 0.271654 0.910293 0.786488
514 4 0.39585 0.86656 0.821255
547 4 0.395553 0.901824 0.823423
591 2 0.0912054 0.921135 0.773211
504 2 0.124589 0.995777 0.766538
400 4 0.237309 0.969523 0.809154
399 2 0.254482 0.939908 0.797821
1229 4 0.401261 0.995652 0.75721
1228 4 0.374646 0.993759 0.824215
1227 2 0.387953 0.994706 0.790712
632 4 0.34002 0.991584 0.817827
757 4 0.0572752 0.0769277 0.846778
446 4 0.134364 0.0527922 0.92183
631 4 0.333461 0.990794 0.889646
758 4 0.0949328 0.132406 0.873343
756 2 0.0761043 0.104667 0.860061
1459 4 0.32563 0.146145 0.853659
1458 2 0.335462 0.136071 0.886859
712 4 0.0606667 0.153048 0.872176
711 2 0.0742399 0.181369 0.854454
27 3 0.0557359 0.24607 0.854651
765 2 0.160305 0.250169 0.868128
767 4 0.181164 0.221133 0.863409
1236 2 0.441489 0.20049 0.911273
1237 4 0.461338 0.202929 0.881265
29 3 0.0314585 0.288417 0.831077
1241 4 0.0284946 0.257185 0.894755
30 3 0.0534412 0.293228 0.880498
26 1 0.0566207 0.279038 0.851048
766 4 0.139447 0.279204 0.872846
1026 2 0.123559 0.326959 0.858388
1027 4 0.109374 0.29628 0.870955
437 4 0.0839484 0.413275 0.906326
1028 4 0.137745 0.357638 0.845819
436 4 0.11491 0.378955 0.850963
435 2 0.0994298 0.396114 0.878644
612 2 0.282349 0.402597 0.839659
613 4 0.268478 0.379848 0.863958
691 4 0.263435 0.352665 0.889975
769 4 0.444066 0.39072 0.887157
760 4 0.491992 0.392432 0.828535
67 4 0.0551074 0.438607 0.897708
7 3 0.0934598 0.488714 0.889291
587 4 0.126853 0.506493 0.89495
8 3 0.136536 0.484156 0.92188
770 4 0.413749 0.454249 0.871455
679 4 0.382044 0.466218 0.860375
678 2 0.383949 0.492091 0.885422
768 2 0.428908 0.422484 0.879306
788 4 0.0283077 0.568122 0.913637
585 2 0.155531 0.521517 0.879067
754 4 0.196444 0.558507 0.88906
753 2 0.225267 0.559063 0.910725
586 4 0.184209 0.536541 0.863184
755 4 0.254089 0.559619 0.932389
680 4 0.385853 0.517965 0.910469
121 4 0.350788 0.516897 0.924135
786 2 0.00984689 0.59572 0.899568
511 4 0.251415 0.631475 0.879999
510 2 0.24163 0.665184 0.888266
477 2 0.315663 0.636651 0.838685
479 4 0.338877 0.611543 0.850138
577 4 0.416689 0.613307 0.861359
578 4 0.484683 0.618644 0.884809
576 2 0.450686 0.615976 0.873084
1150 4 0.286678 0.923108 0.00102072
637 4 0.190124 0.72087 0.848931
512 4 0.231844 0.698893 0.896532
670 4 0.240804 0.737022 0.866687
595 4 0.359207 0.665898 0.901416
669 2 0.254948 0.739942 0.89973
329 4 0.300818 0.8852 0.85434
1151 4 0.289651 0.897489 0.933668
328 4 0.317958 0.875751 0.923755
327 2 0.309388 0.880476 0.889047
1445 4 0.118502 0.937056 0.857536
1443 2 0.153658 0.94465 0.860141
1444 4 0.188814 0.952243 0.862746
630 2 0.336741 0.991189 0.853736
546 2 0.38787 0.932276 0.841143
548 4 0.380186 0.962729 0.858864
1519 4 0.36501 0.972814 0.888756
1518 2 0.389382 0.95881 0.911347
739 4 0.492188 0.994521 0.829726
1512 2 0.00501498 0.990443 0.948774
1514 4 0.031736 0.986552 0.924873
444 2 0.15655 0.0749165 0.939682
1462 4 0.152254 0.0991803 0.984034
445 4 0.178736 0.0970411 0.957534
1460 4 0.345294 0.125998 0.920059
248 4 0.311275 0.135887 0.932068
246 2 0.315237 0.117008 0.962535
500 4 0.394726 0.174193 0.942553
352 4 0.490472 0.155843 0.97969
1240 4 0.0172469 0.239132 0.96367
498 2 0.39465 0.192952 0.973351
1238 4 0.42164 0.198051 0.941281
1239 2 0.0228709 0.248158 0.929213
346 4 0.467542 0.279217 0.987526
1007 4 0.469523 0.30737 0.962674
690 2 0.255099 0.348798 0.924846
692 4 0.246762 0.344931 0.959716
455 4 0.253648 0.373124 0.976788
1005 2 0.460965 0.342295 0.965398
1006 4 0.452407 0.377219 0.968123
271 4 0.0519213 0.456878 0.996336
10 3 0.0959096 0.448232 0.924683
66 2 0.0275565 0.44226 0.920687
6 1 0.103429 0.479807 0.919655
9 3 0.0878453 0.49899 0.942217
936 2 0.0831336 0.551697 0.917869
665 4 0.114998 0.512566 0.962015
937 4 0.102746 0.522296 0.910703
663 2 0.129379 0.516008 0.994905
122 4 0.331533 0.572785 0.965456
120 2 0.34116 0.544841 0.944795
938 4 0.0635205 0.581096 0.925036
156 2 0.390682 0.59893 0.998098
158 4 0.363998 0.590005 0.975542
972 2 0.498893 0.660642 0.985631
699 2 0.0168606 0.714432 0.950014
701 4 0.0217169 0.692035 0.977856
700 4 0.0120043 0.73683 0.922172
180 2 0.137611 0.745297 0.964414
181 4 0.151328 0.712536 0.970659
473 4 0.189511 0.714112 0.964498
471 2 0.195938 0.690364 0.990864
596 4 0.300606 0.672616 0.942919
594 2 0.329906 0.669257 0.922168
45 3 0.436674 0.686772 0.973017
42 3 0.452489 0.733331 0.994912
350 4 0.0265966 0.800121 0.950122
999 2 0.0710125 0.800329 0.975845
1001 4 0.0436253 0.822984 0.969753
1000 4 0.0983996 0.777674 0.981937
182 4 0.123895 0.778058 0.958169
709 4 0.302588 0.754811 0.942379
671 4 0.269091 0.742862 0.932773
708 2 0.324994 0.782692 0.946973
57 2 0.397379 0.768665 0.980977
710 4 0.347399 0.810572 0.951568
58 4 0.381627 0.798722 0.968774
59 4 0.413131 0.738608 0.993179
1149 2 0.288165 0.910299 0.967344
106 4 0.344487 0.836561 0.981492
105 2 0.350409 0.868671 0.996799
1207 4 0.442801 0.927962 0.920092
301 4 0.119088 0.9729 0.00143774
1493 4 0.488489 0.223863 0.87615
225 2 0.495032 0.0370164 0.994178
247 4 0.3192 0.0981284 0.993003
974 4 0.470178 0.682375 0.987519
74 4 0.130562 0.148174 0.503196
516 2 0.4005 0.105587 0.503409
850 4 0.0262101 0.70367 0.508746
1128 2 0.553906 0.00993326 0.0780037
1130 4 0.538967 0.979994 0.0914488
1129 4 0.568846 0.0398739 0.0645582
314 4 0.615013 0.0535517 0.0728285
899 4 0.684897 0.0718412 0.0372793
897 2 0.668412 0.0492733 0.0144902
51 2 0.542374 0.124249 0.073659
53 4 0.566909 0.148022 0.062116
1328 4 0.709643 0.0925636 0.0512826
1326 2 0.744714 0.0984544 0.057262
1327 4 0.779785 0.104345 0.0632412
75 2 0.896915 0.109054 0.0835662
77 4 0.875186 0.133161 0.067846
296 4 0.981861 0.0920891 0.0551626
1126 4 0.938299 0.167213 0.0765772
948 2 0.585042 0.186984 0.0229956
949 4 0.591106 0.174609 0.0563197
1345 4 0.732687 0.186333 0.0136864
1344 2 0.70732 0.162688 0.00379472
1058 4 0.740784 0.19264 0.0521717
1056 2 0.740334 0.208367 0.08462
943 4 0.868276 0.236049 0.0521511
942 2 0.87894 0.211866 0.0766835
904 4 0.942208 0.194759 0.057413
903 2 0.953549 0.228746 0.0533295
15 3 0.583586 0.258873 0.0385858
11 1 0.574964 0.264787 0.00744868
1202 4 0.832117 0.290048 0.046752
1200 2 0.797738 0.300302 0.0430958
1201 4 0.76336 0.310555 0.0394395
1285 4 0.845735 0.25587 0.0331531
1284 2 0.866409 0.262569 0.00437529
1047 2 0.977378 0.334639 0.0556872
1048 4 0.977645 0.298595 0.054594
905 4 0.96489 0.262733 0.0492459
887 4 0.518542 0.3591 0.0838906
549 2 0.743677 0.404417 0.0137561
970 4 0.822634 0.372876 0.0719992
1049 4 0.97711 0.370683 0.0567807
1248 2 0.770681 0.96275 0.480395
1507 4 0.50601 0.975345 0.402671
99 2 0.536021 0.466102 0.0206402
100 4 0.537334 0.478222 0.0545784
872 4 0.656867 0.483219 0.070172
734 4 0.684371 0.448357 0.998538
870 2 0.682835 0.4592 0.0631605
871 4 0.708803 0.435182 0.0561494
551 4 0.737562 0.417929 0.0466259
1203 2 0.995871 0.413219 0.0507174
1205 4 0.989761 0.445214 0.0661913
917 4 0.53013 0.570269 0.0797722
915 2 0.543821 0.537332 0.0744681
916 4 0.557512 0.504395 0.0691639
1486 4 0.658982 0.5169 0.0639783
256 4 0.00127574 0.798525 0.333226
1485 2 0.652569 0.549905 0.0770139
881 4 0.730907 0.54409 0.0901196
884 4 0.557001 0.640351 0.0700703
823 4 0.57594 0.61418 0.0505661
822 2 0.584769 0.594689 0.0215387
431 4 0.509684 0.603148 0.0738741
1096 4 0.675627 0.612136 0.0113348
1095 2 0.687682 0.633266 0.0379538
1097 4 0.699738 0.654397 0.0645728
1036 4 0.735497 0.662939 0.0694738
1124 4 0.988961 0.610494 0.0383012
1122 2 0.966599 0.627713 0.0607479
667 4 0.753092 0.743182 0.0150981
1033 4 0.55156 0.890199 0.0709955
858 2 0.589045 0.847218 0.0625636
859 4 0.569281 0.869904 0.0426864
820 4 0.618273 0.895339 0.0225326
906 2 0.804126 0.904105 0.0797776
907 4 0.830961 0.888985 0.061025
873 2 0.859467 0.853277 0.0210864
874 4 0.890393 0.837846 0.0107977
875 4 0.828541 0.868708 0.0313752
1032 2 0.541234 0.920541 0.0875248
1134 2 0.517801 0.0647658 0.124252
1136 4 0.508152 0.0302147 0.127928
312 2 0.617129 0.056201 0.10873
313 4 0.619245 0.0588501 0.144631
989 4 0.637843 0.0838301 0.131178
1081 4 0.911873 0.996685 0.108622
76 4 0.918644 0.0849478 0.0992864
1135 4 0.527451 0.0993169 0.120576
52 4 0.517838 0.100475 0.0852021
987 2 0.656903 0.104429 0.153824
1057 4 0.739884 0.224095 0.117068
944 4 0.889605 0.187683 0.101216
1125 2 0.951681 0.176256 0.108819
1127 4 0.965063 0.1853 0.141061
404 4 0.536462 0.336985 0.106854
402 2 0.54592 0.345573 0.140576
403 4 0.555377 0.354162 0.1743
969 2 0.853388 0.376662 0.0904466
971 4 0.884141 0.380448 0.108894
60 2 0.519985 0.454976 0.176889
1267 4 0.758804 0.457734 0.142555
1222 4 0.984472 0.459966 0.100551
1221 2 0.987117 0.493218 0.0868505
216 2 0.642868 0.573756 0.155311
879 2 0.750312 0.572323 0.101381
1223 4 0.989763 0.52647 0.07315
211 4 0.97039 0.54744 0.0967967
210 2 0.945158 0.562072 0.118002
882 2 0.577331 0.665078 0.0866742
1487 4 0.646157 0.58291 0.0900496
218 4 0.660109 0.580536 0.124373
1031 4 0.625201 0.668863 0.112997
880 4 0.769716 0.600555 0.112642
1114 4 0.8022 0.652223 0.138435
212 4 0.919926 0.576703 0.139207
1123 4 0.944237 0.644932 0.0831947
507 2 0.535307 0.73013 0.179181
508 4 0.534033 0.741599 0.145015
136 4 0.52287 0.726066 0.106052
883 4 0.597661 0.689805 0.103278
1029 2 0.655556 0.674279 0.131696
1035 2 0.72702 0.676104 0.101958
1037 4 0.718543 0.689268 0.134443
1030 4 0.685911 0.679696 0.150395
1113 2 0.80338 0.672653 0.108743
1115 4 0.804559 0.693084 0.0790507
1354 4 0.886379 0.747533 0.168007
209 4 0.557235 0.747287 0.110213
207 2 0.584314 0.771086 0.111074
208 4 0.611392 0.794886 0.111936
1020 2 0.808906 0.818355 0.106026
1022 4 0.774534 0.813505 0.096257
1021 4 0.843279 0.823205 0.115796
1355 4 0.861681 0.811677 0.146163
1353 2 0.87403 0.779605 0.157086
860 4 0.60881 0.824531 0.0824416
908 4 0.777291 0.919226 0.0985301
1034 4 0.530909 0.950881 0.104054
1080 2 0.899249 0.969977 0.129303
1082 4 0.886625 0.943269 0.149985
1067 4 0.556776 0.129522 0.240749