ITEM: TIMESTEP
928000
ITEM: NUMBER OF ATOMS
1520
ITEM: BOX BOUNDS pp pp pp
-6.9326749999999997e+00 6.9326749999999997e+00
-6.9326749999999997e+00 6.9326749999999997e+00
-6.9326749999999997e+00 6.9326749999999997e+00
ITEM: ATOMS id type xs ys zs
294 2 0.07813 0.0197647 0.0399862
296 4 0.0472254 0.0252042 0.0222171
987 2 0.146159 0.00194141 0.0862656
988 4 0.175561 0.981978 0.080148
907 4 0.205392 0.984137 0.111818
906 2 0.213379 0.019078 0.11579
870 2 0.370836 0.987656 0.0963772
872 4 0.373184 0.0092201 0.0675699
325 4 0.386775 0.0309488 0.0433621
683 4 0.462159 0.026377 0.0590517
681 2 0.442641 0.013915 0.031408
557 4 0.124096 0.151929 0.0378431
1274 4 0.118056 0.124404 0.0140617
1137 2 0.233636 0.149395 0.0304928
515 4 0.00129012 0.80448 0.0162656
1139 4 0.259897 0.136105 0.0513271
98 4 0.265344 0.145844 0.0821427
324 2 0.380222 0.0590603 0.0649768
326 4 0.373669 0.0871718 0.0865916
555 2 0.144034 0.17238 0.0158293
290 4 0.498375 0.175845 0.469201
1427 4 0.26893 0.194545 0.0562484
1425 2 0.28321 0.224828 0.0428541
1426 4 0.297491 0.255111 0.0294599
1007 4 0.00669044 0.0148867 0.428671
755 4 0.0257583 0.291033 0.0168282
753 2 0.0231332 0.260586 0.0359714
697 4 0.166413 0.271074 0.0986979
909 2 0.418057 0.315896 0.00677655
1446 2 0.00998199 0.35301 0.0546071
1447 4 0.00923285 0.319228 0.0420117
78 2 0.0763377 0.364718 0.00644788
48 3 0.0282654 0.549385 0.247733
1062 2 0.224947 0.390858 0.075585
1064 4 0.223656 0.35806 0.0606513
1335 2 0.20853 0.327437 0.00957919
1063 4 0.226237 0.423656 0.0905194
1337 4 0.232535 0.347178 0.0278674
1157 4 0.00615436 0.24828 0.0840526
911 4 0.393223 0.329225 0.0292715
1471 4 0.0703034 0.42618 0.0183734
79 4 0.0592381 0.390904 0.0244005
1470 2 0.103507 0.438429 0.0252961
1472 4 0.136708 0.450678 0.0322195
529 4 0.231992 0.452514 0.0727288
528 2 0.235409 0.469595 0.0411544
530 4 0.238827 0.486676 0.00958015
1006 4 0.0357771 0.949502 0.437644
1296 2 0.331109 0.422798 0.0725027
271 4 0.119215 0.511455 0.00620565
1297 4 0.30345 0.407976 0.0547357
624 2 0.370192 0.597947 0.0381588
626 4 0.382156 0.624961 0.0588361
788 4 0.158917 0.647094 0.0485176
786 2 0.193375 0.648578 0.0590471
413 4 0.470254 0.206501 0.082145
787 4 0.227833 0.650063 0.0695763
160 4 0.275961 0.597351 0.0169552
1058 4 0.258129 0.630131 0.0779882
1056 2 0.265562 0.595476 0.0846355
797 4 0.360704 0.592884 0.0924849
625 4 0.358228 0.570934 0.0174813
1362 2 0.42566 0.683873 0.0487872
1364 4 0.396619 0.66418 0.040466
587 4 0.371368 0.78838 0.999721
585 2 0.354124 0.769598 0.0252221
1057 4 0.272995 0.560821 0.0912825
20 3 0.421124 0.735113 0.0241214
548 4 0.482985 0.689003 0.0401845
1448 4 0.0107316 0.386792 0.067202
169 4 0.0362953 0.791984 0.00785106
314 4 0.131535 0.844309 0.0316202
312 2 0.130269 0.813948 0.0510371
668 4 0.154965 0.624987 0.0184613
286 4 0.385157 0.836703 0.102858
17 3 0.446619 0.779936 0.00868746
170 4 0.0715101 0.851303 0.028895
168 2 0.0539029 0.821643 0.0183728
1005 2 0.0212335 0.982194 0.433158
1368 2 0.101988 0.892055 0.0104853
295 4 0.109035 0.0143257 0.0577549
908 4 0.221365 0.0540184 0.119762
871 4 0.368489 0.966091 0.125184
268 4 0.480364 0.0173391 0.154626
96 2 0.274564 0.116974 0.101684
97 4 0.283784 0.0881031 0.121226
737 4 0.372474 0.122456 0.097079
735 2 0.365513 0.112277 0.130966
736 4 0.358551 0.102098 0.164853
84 2 0.177301 0.205882 0.103355
86 4 0.191846 0.177601 0.120357
1189 4 0.189242 0.202992 0.147311
85 4 0.162757 0.234163 0.0863536
563 4 0.340755 0.255467 0.158603
965 4 0.347511 0.223573 0.138881
963 2 0.379694 0.212356 0.150664
411 2 0.452661 0.215635 0.112269
412 4 0.435068 0.224768 0.142394
964 4 0.411877 0.201139 0.162447
698 4 0.171774 0.338327 0.0732009
696 2 0.169094 0.304701 0.0859497
229 4 0.12579 0.45005 0.129506
74 4 0.198683 0.387643 0.157965
228 2 0.137353 0.445027 0.0957196
230 4 0.148915 0.440005 0.0619333
1298 4 0.358769 0.437621 0.0902698
894 2 0.365984 0.463662 0.145719
896 4 0.374067 0.435605 0.124555
795 2 0.375487 0.614216 0.11752
796 4 0.39027 0.635549 0.142556
1084 4 0.241747 0.738269 0.125867
1085 4 0.303409 0.752078 0.0911012
1083 2 0.272578 0.745174 0.108484
653 4 0.170755 0.841721 0.149956
986 4 0.192356 0.814829 0.13678
984 2 0.20389 0.78099 0.141506
985 4 0.215424 0.747152 0.146232
287 4 0.352354 0.772975 0.110878
285 2 0.368756 0.804839 0.106868
759 2 0.0672375 0.868677 0.108365
760 4 0.0487817 0.887878 0.0840523
1345 4 0.0151854 0.879524 0.094157
651 2 0.135345 0.837964 0.155653
761 4 0.0856927 0.849477 0.132679
1036 4 0.39387 0.857166 0.0753061
1035 2 0.393418 0.883556 0.0998783
1037 4 0.392967 0.909946 0.124451
989 4 0.116758 0.0219049 0.0923841
1136 4 0.417356 0.929683 0.147279
1134 2 0.445977 0.943655 0.130366
1135 4 0.474597 0.957627 0.113452
292 4 0.457488 0.00462639 0.23741
1030 4 0.424193 0.081291 0.204789
267 2 0.461426 0.0303328 0.182429
1029 2 0.424639 0.07848 0.240738
269 4 0.442489 0.043327 0.210231
850 4 0.0143966 0.222802 0.153962
1140 2 0.0908088 0.143273 0.226027
849 2 0.0292395 0.205434 0.181863
851 4 0.0440816 0.188065 0.209763
1141 4 0.0626763 0.157368 0.208411
1188 2 0.187803 0.204281 0.183321
1190 4 0.186363 0.20557 0.219332
1214 4 0.172057 0.230806 0.247724
561 2 0.30961 0.262683 0.175287
1252 4 0.46943 0.214163 0.212931
1251 2 0.470533 0.238533 0.239489
1253 4 0.471636 0.262903 0.266047
1212 2 0.146807 0.253292 0.260269
562 4 0.278465 0.269897 0.191971
1233 2 0.0520975 0.394003 0.24962
1235 4 0.0452295 0.418264 0.223839
73 4 0.208382 0.321752 0.185641
72 2 0.203533 0.354698 0.171803
409 4 0.0567612 0.438834 0.197365
408 2 0.0428645 0.470384 0.207943
410 4 0.0289682 0.501935 0.21852
32 3 0.0961739 0.481217 0.221792
34 3 0.123212 0.452254 0.184799
31 1 0.124448 0.464951 0.215737
35 3 0.14969 0.485811 0.21829
465 2 0.216366 0.496533 0.196523
467 4 0.180507 0.49336 0.19864
541 4 0.336598 0.512939 0.188737
895 4 0.357902 0.491719 0.166883
49 3 0.038509 0.531917 0.196798
50 3 0.00716061 0.575484 0.205045
46 1 0.0157747 0.546074 0.216864
466 4 0.252224 0.499707 0.194407
542 4 0.273658 0.478701 0.180496
540 2 0.305128 0.49582 0.184617
778 4 0.249143 0.610844 0.224998
1442 4 0.485105 0.638434 0.255419
494 4 0.414214 0.661913 0.157841
1138 4 0.207374 0.162685 0.00965801
493 4 0.471648 0.695847 0.185255
492 2 0.442931 0.67888 0.171549
978 2 0.416426 0.800802 0.245028
979 4 0.414564 0.768349 0.260639
980 4 0.418288 0.833255 0.229415
468 2 0.0306448 0.85622 0.227411
469 4 0.00675651 0.854505 0.20045
157 4 0.411225 0.475522 0.493482
652 4 0.0999361 0.834206 0.161351
470 4 0.0545327 0.857933 0.254371
1490 4 0.209594 0.933383 0.272595
265 4 0.367807 0.909094 0.188316
1334 4 0.398467 0.906303 0.171738
1332 2 0.401159 0.871476 0.180695
1333 4 0.403851 0.836648 0.189652
415 4 0.497665 0.902403 0.266345
214 4 0.130791 0.00845727 0.264451
213 2 0.136957 0.975156 0.252064
215 4 0.143123 0.941855 0.239678
266 4 0.310553 0.9066 0.232104
264 2 0.33918 0.907847 0.21021
1388 4 0.0704817 0.110727 0.310801
291 2 0.444283 0.998992 0.270491
293 4 0.431078 0.993358 0.303571
1012 4 0.460077 0.00933306 0.319192
464 4 0.13591 0.0808385 0.342267
1387 4 0.128528 0.0688692 0.301844
1386 2 0.0995046 0.0897978 0.306322
1142 4 0.118941 0.129178 0.243643
307 4 0.142913 0.148525 0.259791
641 4 0.331499 0.156216 0.339402
1031 4 0.425085 0.075668 0.276686
306 2 0.168754 0.173669 0.259155
308 4 0.194594 0.198815 0.258518
507 2 0.132701 0.296345 0.334039
508 4 0.136284 0.2963 0.298157
1213 4 0.121558 0.275776 0.272812
609 2 0.0564902 0.345922 0.32387
1234 4 0.0589653 0.369743 0.275401
611 4 0.0709225 0.340179 0.291325
1254 2 0.0249076 0.457585 0.316739
1255 4 0.0281276 0.432052 0.291479
1256 4 0.0216873 0.483118 0.342
33 3 0.127729 0.440267 0.238094
232 4 0.0233071 0.558932 0.285981
231 2 0.0342669 0.53533 0.310946
233 4 0.0452261 0.511728 0.335911
1422 2 0.460596 0.607194 0.335573
570 2 0.167331 0.589837 0.302301
572 4 0.16852 0.617305 0.278967
779 4 0.197386 0.598855 0.273774
777 2 0.223264 0.60485 0.249386
1023 2 0.487141 0.675728 0.308536
1025 4 0.471566 0.651926 0.286371
1424 4 0.461102 0.641202 0.323588
1073 4 0.0248105 0.697844 0.251103
973 4 0.341142 0.724323 0.307915
502 4 0.155772 0.917399 0.501591
370 4 0.484714 0.746629 0.324229
586 4 0.33688 0.750817 0.050723
1369 4 0.119378 0.920599 0.0240226
1398 2 0.296417 0.790973 0.330145
1399 4 0.301194 0.779667 0.296237
1488 2 0.219236 0.901031 0.285275
1489 4 0.228877 0.868679 0.297956
644 4 0.320625 0.868812 0.326466
642 2 0.335606 0.887989 0.299853
643 4 0.350586 0.907166 0.27324
1289 4 0.423755 0.855355 0.271147
1287 2 0.411894 0.855077 0.305202
1288 4 0.400034 0.854798 0.339255
1450 4 0.0478195 0.0999027 0.347045
1451 4 0.0637493 0.0482475 0.394791
1449 2 0.0557842 0.0740752 0.370918
1468 4 0.0993946 0.0523571 0.402681
463 4 0.179753 0.137037 0.353277
1517 4 0.34674 0.00850359 0.355254
1011 2 0.440297 0.0220046 0.346552
1013 4 0.420517 0.0346766 0.373913
462 2 0.157832 0.108938 0.347773
639 2 0.308809 0.178332 0.356618
640 4 0.286119 0.200449 0.373835
509 4 0.129118 0.296391 0.369922
815 4 0.113642 0.303829 0.400647
813 2 0.139223 0.31575 0.423095
1105 4 0.441825 0.327603 0.34275
1104 2 0.420366 0.298858 0.346442
1106 4 0.398907 0.270113 0.350134
1486 4 0.339846 0.407214 0.381261
1487 4 0.337861 0.375448 0.31654
1485 2 0.338854 0.391331 0.3489
390 2 0.161496 0.964453 0.461173
538 4 0.267208 0.462805 0.496954
64 4 0.180316 0.889086 0.499262
500 4 0.448754 0.461216 0.225338
499 4 0.400829 0.449181 0.277873
498 2 0.424791 0.455199 0.251606
575 4 0.0231701 0.4761 0.444202
400 4 0.189234 0.549178 0.375598
571 4 0.166143 0.562369 0.325636
399 2 0.178898 0.522782 0.353308
401 4 0.168562 0.496387 0.331018
712 4 0.347713 0.563601 0.439906
1423 4 0.460091 0.573186 0.347559
1044 2 0.213182 0.58737 0.404161
218 4 0.267915 0.614157 0.381834
216 2 0.277925 0.647404 0.391572
1046 4 0.242254 0.608403 0.400586
217 4 0.287935 0.680651 0.401309
1028 4 0.312132 0.711773 0.432296
972 2 0.345268 0.722783 0.343706
974 4 0.349394 0.721242 0.379497
661 4 0.338357 0.731514 0.412549
1218 2 0.448005 0.760244 0.37867
1220 4 0.455814 0.762916 0.343565
1400 4 0.29164 0.802278 0.364053
660 2 0.371684 0.742839 0.420387
1506 2 0.0140722 0.861672 0.419908
873 2 0.206839 0.86929 0.401621
874 4 0.230614 0.843778 0.4108
1102 4 0.390496 0.823735 0.353786
1101 2 0.386428 0.838893 0.386253
1117 4 0.488957 0.888612 0.414017
194 4 0.113545 0.925138 0.379112
192 2 0.148073 0.926819 0.389377
875 4 0.183064 0.894802 0.392442
193 4 0.182602 0.9285 0.399641
1515 2 0.326689 0.995037 0.382031
1516 4 0.306638 0.981571 0.408808
1116 2 0.494533 0.924218 0.412767
1467 2 0.104294 0.0217825 0.421163
1469 4 0.109194 0.991208 0.439646
136 4 0.408774 0.146768 0.427762
633 2 0.427318 0.0144783 0.490287
1381 4 0.174992 0.1163 0.438152
1382 4 0.143856 0.144757 0.496653
1380 2 0.159424 0.130528 0.467403
135 2 0.413537 0.122454 0.453964
137 4 0.4183 0.09814 0.480167
688 4 0.290837 0.232206 0.480154
687 2 0.296911 0.20133 0.497767
648 2 0.0160282 0.326695 0.480915
392 4 0.169853 0.946636 0.491391
650 4 0.033482 0.358049 0.484481
814 4 0.164804 0.327671 0.445543
473 4 0.00913539 0.764806 0.418541
936 2 0.0802909 0.928379 0.431015
694 4 0.332648 0.388171 0.413528
695 4 0.338026 0.415435 0.480081
693 2 0.335337 0.401802 0.446805
659 4 0.359264 0.400242 0.500199
1519 4 0.0664138 0.133817 0.277157
574 4 0.0754076 0.520517 0.421842
573 2 0.0492892 0.498309 0.433022
1045 4 0.184108 0.566338 0.407736
713 4 0.341013 0.632574 0.419919
711 2 0.344363 0.598087 0.429912
1026 2 0.288392 0.703292 0.458081
1027 4 0.264652 0.694811 0.483867
610 4 0.0420582 0.351666 0.356414
754 4 0.0205077 0.230139 0.0551149
471 2 0.0342991 0.739137 0.42142
716 4 0.0689683 0.803416 0.48237
472 4 0.0594631 0.713468 0.424299
714 2 0.104102 0.811366 0.48068
715 4 0.139235 0.819316 0.47899
1430 4 0.258498 0.790277 0.422437
65 4 0.18284 0.828475 0.460253
1428 2 0.226391 0.791647 0.438798
1429 4 0.194284 0.793018 0.455158
1518 2 0.0308314 0.135582 0.282744
662 4 0.405012 0.754163 0.428226
1219 4 0.440196 0.757573 0.413774
1507 4 0.0429477 0.876581 0.435539
938 4 0.109169 0.93817 0.411763
63 2 0.181578 0.85878 0.479758
1103 4 0.38236 0.85405 0.41872
937 4 0.0514123 0.918589 0.450266
391 4 0.15314 0.982269 0.430955
634 4 0.400484 0.0248522 0.468544
313 4 0.129004 0.783587 0.0704541
1363 4 0.4547 0.703567 0.0571089
76 4 0.165064 0.446021 0.0208632
962 4 0.0814693 0.338761 0.492707
1144 4 0.208692 0.969905 0.47767
25 3 0.312454 0.238182 0.000526072
682 4 0.423124 0.00145273 0.00376458
1417 4 0.456051 0.279562 0.0102665
1416 2 0.490783 0.28799 0.00546435
794 4 0.0652597 0.0492538 0.534761
604 4 0.165127 0.0239126 0.571778
793 4 0.131069 0.0309073 0.557875
792 2 0.0981646 0.0400802 0.546318
603 2 0.174159 0.0587616 0.573868
1051 4 0.313186 0.0162508 0.55394
1098 2 0.485742 0.437506 0.896422
635 4 0.454152 0.00410391 0.512029
1096 4 0.121991 0.805467 0.994069
1074 2 0.0412983 0.112266 0.539047
1076 4 0.0383224 0.0766837 0.544093
518 4 0.0276912 0.181983 0.53671
526 4 0.0985758 0.161022 0.516117
605 4 0.183191 0.0936108 0.575958
1171 4 0.183106 0.111096 0.540787
1170 2 0.187892 0.146774 0.542935
525 2 0.108683 0.185134 0.540952
527 4 0.11879 0.209247 0.565789
1324 4 0.113113 0.227322 0.597807
1032 2 0.496748 0.144618 0.925096
960 2 0.111214 0.355453 0.504416
159 2 0.245027 0.595016 0.998569
1323 2 0.0923704 0.252519 0.582469
1325 4 0.0716283 0.277716 0.567132
1047 2 0.0623555 0.418369 0.51099
1049 4 0.0437394 0.388976 0.501507
1048 4 0.0809716 0.447762 0.520472
898 4 0.131038 0.379181 0.549804
961 4 0.140957 0.372144 0.516125
897 2 0.128466 0.371281 0.584896
532 4 0.358232 0.365739 0.502637
899 4 0.125895 0.363381 0.619987
539 4 0.263258 0.439963 0.56525
537 2 0.265233 0.451385 0.531102
1292 4 0.0125367 0.731585 0.897639
614 4 0.494968 0.668864 0.897222
658 4 0.420085 0.438953 0.502175
1238 4 0.490422 0.429011 0.579116
156 2 0.432216 0.497376 0.513032
877 4 0.239257 0.57589 0.601662
876 2 0.269878 0.58514 0.585011
158 4 0.453207 0.51923 0.532582
1319 4 0.498121 0.903833 0.981529
237 2 0.0876701 0.631546 0.595893
238 4 0.0882871 0.667597 0.595338
41 1 0.0787066 0.696854 0.548146
45 3 0.0653923 0.684849 0.520625
44 3 0.0653439 0.681723 0.574837
43 3 0.111844 0.692198 0.547773
995 4 0.28665 0.699079 0.515222
993 2 0.305798 0.726599 0.528506
1405 4 0.444067 0.775674 0.50997
994 4 0.324945 0.754119 0.541789
1433 4 0.304835 0.774196 0.515663
1431 2 0.302701 0.80966 0.509484
248 4 0.0082623 0.842201 0.657456
839 4 0.496709 0.816245 0.56924
948 2 0.0179738 0.920972 0.556037
479 4 0.472759 0.553296 0.915376
883 4 0.270161 0.847241 0.608261
929 4 0.416288 0.939328 0.51545
928 4 0.344521 0.934832 0.521011
927 2 0.380404 0.93708 0.51823
30 3 0.46437 0.856967 0.528563
28 3 0.482602 0.85231 0.579501
29 3 0.474527 0.901828 0.557426
26 1 0.483947 0.870302 0.551316
950 4 0.0455571 0.897839 0.558135
503 4 0.173964 0.900809 0.56938
501 2 0.164868 0.909105 0.535486
689 4 0.302985 0.170454 0.515378
799 4 0.00584604 0.755603 0.743877
1143 2 0.234074 0.963587 0.502494
678 2 0.239803 0.60309 0.92249
110 4 0.349163 0.938829 0.60083
791 4 0.471424 0.990165 0.540587
322 4 0.112314 0.00921822 0.949382
100 4 0.0844363 0.064072 0.619844
99 2 0.0532363 0.0815306 0.624553
1129 4 0.0733167 0.0305993 0.637732
234 2 0.186105 0.0239824 0.657176
1050 2 0.292658 0.0129607 0.583405
101 4 0.0220367 0.0989888 0.629263
1172 4 0.192679 0.182451 0.545084
343 4 0.45442 0.149112 0.586988
422 4 0.473371 0.620031 0.688751
710 4 0.172699 0.180675 0.573487
708 2 0.172049 0.215917 0.581101
358 4 0.272798 0.205559 0.677671
359 4 0.276556 0.211375 0.605883
357 2 0.274677 0.208467 0.641777
344 4 0.393376 0.179824 0.610054
342 2 0.423898 0.164468 0.598521
709 4 0.171399 0.251159 0.588714
1358 4 0.252369 0.232447 0.681097
531 2 0.367292 0.342047 0.528269
533 4 0.376352 0.318354 0.553901
148 4 0.402046 0.327125 0.620752
957 2 0.252981 0.399312 0.622809
946 4 0.472181 0.432825 0.614124
376 4 0.218956 0.520302 0.680115
959 4 0.267702 0.412084 0.592468
945 2 0.455052 0.430505 0.645773
239 4 0.0870532 0.595495 0.596449
375 2 0.222922 0.531926 0.646209
377 4 0.226887 0.543549 0.612304
177 2 0.409317 0.539499 0.601209
179 4 0.392057 0.535593 0.569789
1366 4 0.30395 0.624031 0.590053
878 4 0.300498 0.594389 0.568359
1365 2 0.337662 0.627964 0.602238
480 2 0.419906 0.647823 0.65641
1495 4 0.475961 0.632905 0.64857
482 4 0.443855 0.6489 0.683349
42 3 0.0724668 0.729384 0.550016
481 4 0.395957 0.646747 0.629473
1367 4 0.371372 0.631896 0.614422
617 4 0.00469497 0.81815 0.568077
341 4 0.0451507 0.780756 0.610475
339 2 0.0759274 0.763652 0.602684
340 4 0.106704 0.746549 0.594894
145 4 0.299203 0.771969 0.621818
146 4 0.330491 0.78582 0.685306
144 2 0.314847 0.778894 0.653562
1404 2 0.476996 0.760974 0.510237
55 4 0.0257857 0.0106756 0.62298
1354 4 0.216246 0.932622 0.590371
884 4 0.322759 0.81744 0.568928
882 2 0.29646 0.832341 0.588595
1130 4 0.0670079 0.993141 0.699041
1145 4 0.259456 0.957268 0.527318
1128 2 0.0701623 0.0118702 0.668386
1355 4 0.19897 0.953254 0.657285
235 4 0.189604 0.988218 0.654171
1353 2 0.207608 0.942938 0.623828
1052 4 0.272131 0.00967003 0.612871
1222 4 0.278951 0.997022 0.649465
1221 2 0.298189 0.986889 0.678234
109 4 0.378685 0.00334192 0.587862
108 2 0.363924 0.971085 0.594346
236 4 0.182607 0.0597477 0.660181
606 2 0.255646 0.107087 0.722256
608 4 0.220903 0.116482 0.720009
905 4 0.0788032 0.98838 0.938916
1299 2 0.198265 0.178747 0.718851
1300 4 0.208584 0.147016 0.705175
1301 4 0.187946 0.210479 0.732528
142 4 0.414258 0.20606 0.627556
141 2 0.43766 0.226693 0.645641
143 4 0.461062 0.247325 0.663726
1097 4 0.122762 0.777564 0.927568
18 3 0.396868 0.769541 0.989841
398 4 0.474713 0.995161 0.881684
1356 2 0.242678 0.263285 0.697081
1357 4 0.232987 0.294124 0.713064
147 2 0.389161 0.326044 0.654415
1095 2 0.122377 0.791515 0.960818
1020 2 0.494803 0.319042 0.744344
1068 2 0.0179725 0.353277 0.72692
1069 4 0.0518419 0.35967 0.737521
958 4 0.238259 0.38654 0.65315
149 4 0.376276 0.324963 0.688078
512 4 0.450392 0.413918 0.733889
947 4 0.437923 0.428185 0.677421
801 2 0.457108 0.473155 0.766363
803 4 0.449115 0.505983 0.778968
178 4 0.426578 0.543405 0.63263
421 4 0.448359 0.556054 0.666775
420 2 0.460866 0.588042 0.677764
163 4 0.127228 0.620846 0.710017
162 2 0.144198 0.606485 0.73841
968 4 0.392875 0.651559 0.77044
1477 4 0.0891589 0.698784 0.71809
1476 2 0.0621402 0.716462 0.734151
1478 4 0.0351216 0.734139 0.750211
497 4 0.110603 0.676439 0.692811
495 2 0.13592 0.700981 0.700368
496 4 0.161237 0.725524 0.707927
1280 4 0.168807 0.754163 0.73192
966 2 0.408722 0.680819 0.756541
670 4 0.176435 0.751213 0.767028
1279 4 0.197561 0.811579 0.699083
1278 2 0.183184 0.782871 0.715502
630 2 0.0143185 0.904666 0.670225
631 4 0.00284513 0.93884 0.669285
1247 4 0.00628677 0.945288 0.709256
1245 2 0.0179439 0.951774 0.74276
1223 4 0.317426 0.976755 0.707002
943 4 0.0267993 0.990455 0.786734
1004 4 0.196089 0.0349844 0.766535
1002 2 0.208438 0.0557046 0.793341
1493 4 0.183385 0.000676035 0.772569
848 4 0.315299 0.069409 0.771676
846 2 0.308695 0.059251 0.80564
847 4 0.302091 0.0490931 0.839606
181 4 0.00970707 0.160168 0.797732
1003 4 0.220787 0.0764245 0.820148
1082 4 0.167304 0.107681 0.829377
1080 2 0.195121 0.119353 0.849135
607 4 0.29039 0.0976925 0.724503
853 4 0.324421 0.351966 0.980565
1132 4 0.119131 0.252711 0.813938
180 2 0.0395557 0.170423 0.815177
1454 4 0.405976 0.162215 0.914023
1133 4 0.0957381 0.302437 0.76723
1131 2 0.107435 0.277574 0.790584
583 4 0.0668983 0.353413 0.768733
582 2 0.0621339 0.344843 0.803435
1111 4 0.191006 0.410437 0.783108
1110 2 0.2175 0.427081 0.801037
1112 4 0.243995 0.443724 0.818966
511 4 0.410479 0.373314 0.778159
443 4 0.400777 0.398395 0.800807
510 2 0.430436 0.393617 0.756024
1021 4 0.475457 0.347731 0.754496
200 4 0.488642 0.381193 0.804016
802 4 0.4651 0.440328 0.753759
1054 4 0.344229 0.555432 0.780233
1053 2 0.348644 0.520984 0.770528
1055 4 0.35306 0.486535 0.760822
1226 4 0.455838 0.574393 0.74667
775 4 0.469617 0.553678 0.777878
1326 2 0.158245 0.60483 0.818122
1327 4 0.14461 0.58025 0.795533
164 4 0.161169 0.592125 0.766803
1224 2 0.43243 0.601781 0.748235
1225 4 0.409023 0.629168 0.749799
664 4 0.21504 0.707043 0.837597
663 2 0.188722 0.683142 0.843641
1228 4 0.229405 0.738498 0.843711
967 4 0.424568 0.710078 0.742642
669 2 0.155794 0.757499 0.795921
671 4 0.135152 0.763785 0.824814
1227 2 0.236928 0.766798 0.822666
1240 4 0.431439 0.79701 0.77057
1239 2 0.454116 0.816932 0.790299
1421 4 0.140948 0.901827 0.798531
356 4 0.362046 0.904838 0.803785
354 2 0.342288 0.884028 0.781944
355 4 0.32253 0.863219 0.760104
1241 4 0.476793 0.836855 0.810029
1246 4 0.0296003 0.958259 0.776263
1419 2 0.12743 0.935257 0.798764
1420 4 0.113912 0.968688 0.798997
1492 4 0.236054 0.958575 0.798167
1491 2 0.20972 0.979626 0.785368
835 4 0.196359 0.954531 0.84636
130 4 0.289704 0.529413 0.930866
1187 4 0.305441 0.0718232 0.870469
80 4 0.0934373 0.338532 0.988494
667 4 0.178649 0.588895 0.960676
1081 4 0.222938 0.131025 0.868894
623 4 0.249534 0.131657 0.896201
621 2 0.227397 0.155172 0.912244
1185 2 0.304251 0.107743 0.873427
1186 4 0.303063 0.143664 0.876385
1453 4 0.391348 0.18412 0.846883
1452 2 0.398662 0.173167 0.880453
1033 4 0.469801 0.12585 0.939996
781 4 0.0684501 0.171934 0.867725
780 2 0.086079 0.2027 0.874292
182 4 0.0694041 0.180679 0.832622
782 4 0.103708 0.233466 0.88086
868 4 0.447082 0.248934 0.934034
867 2 0.421733 0.223694 0.929478
869 4 0.396384 0.198453 0.924921
1075 4 0.0442745 0.147849 0.534
1178 4 0.0388252 0.340148 0.869197
1348 4 0.132221 0.331601 0.890153
1349 4 0.1112 0.268529 0.862195
1347 2 0.121711 0.300065 0.876174
92 4 0.341329 0.33939 0.899863
588 2 0.395406 0.349347 0.875245
589 4 0.359591 0.350759 0.871283
19 3 0.439619 0.739513 0.973256
942 2 0.0113222 0.0161537 0.806744
1177 4 0.00108105 0.353524 0.929181
1176 2 0.0199529 0.346836 0.899189
584 4 0.0573697 0.336274 0.838138
277 4 0.242887 0.416977 0.84376
276 2 0.25865 0.415099 0.876139
278 4 0.274414 0.41322 0.908518
590 4 0.431221 0.347934 0.879207
441 2 0.389996 0.423764 0.824058
199 4 0.451207 0.375954 0.865439
198 2 0.469925 0.378574 0.834727
167 4 0.0612665 0.467834 0.961282
349 4 0.373088 0.47023 0.876923
442 4 0.379213 0.449133 0.847308
348 2 0.401703 0.47137 0.898839
826 4 0.178787 0.515394 0.875019
825 2 0.180877 0.538031 0.903012
1291 4 0.0364632 0.663623 0.900842
829 4 0.0845589 0.579388 0.90101
1328 4 0.171881 0.629409 0.840712
665 4 0.162405 0.659242 0.849685
114 2 0.169221 0.630032 0.904484
679 4 0.266041 0.620395 0.904812
1306 4 0.251334 0.64642 0.883846
1305 2 0.264304 0.649844 0.850373
1290 2 0.0244998 0.697604 0.89924
751 4 0.0971111 0.733297 0.897759
750 2 0.115358 0.731408 0.866712
115 4 0.158914 0.660035 0.887339
1307 4 0.277275 0.653268 0.816901
243 2 0.0493731 0.779515 0.904482
244 4 0.0258076 0.760752 0.924307
752 4 0.133605 0.729518 0.835666
756 2 0.130918 0.822471 0.884559
245 4 0.0729388 0.798278 0.884657
758 4 0.147498 0.852867 0.874481
1229 4 0.244452 0.795098 0.801621
834 2 0.211959 0.951157 0.878697
836 4 0.227559 0.947782 0.911034
904 4 0.0537831 0.0406638 0.981834
903 2 0.0662924 0.0145216 0.960375
241 4 0.0711713 0.0697311 0.956094
321 2 0.142179 0.0263479 0.960112
275 4 0.265934 0.110109 0.96924
1273 4 0.146465 0.0652369 0.984163
323 4 0.172042 0.0434772 0.970842
274 4 0.313759 0.0562752 0.973277
273 2 0.289846 0.0831922 0.971259
666 2 0.166808 0.606944 0.989571
240 2 0.0703964 0.104277 0.945779
242 4 0.0696209 0.138823 0.935464
757 4 0.114337 0.792075 0.894638
1312 4 0.304132 0.181836 0.877306
433 4 0.0923241 0.256866 0.950384
432 2 0.114117 0.2395 0.973272
434 4 0.135913 0.222133 0.99616
622 4 0.205261 0.178688 0.928287
536 4 0.202088 0.216288 0.922227
534 2 0.188244 0.2239 0.954643
535 4 0.174398 0.231511 0.98706
1311 2 0.32961 0.192064 0.900689
24 3 0.341697 0.193034 0.993089
1313 4 0.355088 0.202291 0.924071
21 1 0.332821 0.222546 0.980044
22 3 0.360073 0.240932 0.975582
1339 4 0.0679786 0.327282 0.962044
1340 4 0.0394217 0.261082 0.960128
1338 2 0.0537001 0.294182 0.961086
320 4 0.149508 0.322297 0.972159
90 2 0.337787 0.303736 0.895781
91 4 0.334245 0.268082 0.891699
23 3 0.317917 0.217931 0.950438
910 4 0.442892 0.302567 0.984282
830 4 0.147264 0.579179 0.936656
116 4 0.179527 0.600026 0.921634
318 2 0.170373 0.322927 0.942754
319 4 0.19124 0.323558 0.91335
1336 4 0.184525 0.307695 0.991291
77 4 0.198504 0.439817 0.957264
854 4 0.290527 0.40051 0.939379
852 2 0.307474 0.376238 0.959972
1086 2 0.0125482 0.466744 0.949526
1087 4 0.0431227 0.464438 0.930544
632 4 0.0257922 0.870492 0.671164
1259 4 0.229534 0.490263 0.976109
75 2 0.181783 0.442919 0.989064
1099 4 0.458869 0.449297 0.91738
350 4 0.430318 0.47251 0.920755
128 4 0.493818 0.423141 0.961919
930 2 0.0401508 0.592398 0.970435
932 4 0.0583185 0.620128 0.984624
931 4 0.0219829 0.564667 0.956246
166 4 0.102726 0.523108 0.94061
165 2 0.0819966 0.495471 0.950946
270 2 0.140362 0.531873 0.985319
827 4 0.182956 0.560666 0.931008
1257 2 0.215852 0.523282 0.971319
1258 4 0.202166 0.556303 0.96653
272 4 0.161513 0.552296 0.964428
680 4 0.213572 0.585792 0.940162
161 4 0.214094 0.592682 0.980189
129 2 0.303778 0.500802 0.947712
131 4 0.317851 0.472191 0.964558
478 4 0.434365 0.521563 0.967535
477 2 0.453562 0.537429 0.941456
828 2 0.115908 0.579284 0.918832
1272 2 0.132261 0.0948202 0.999112
556 4 0.163972 0.192833 0.993815
16 1 0.425956 0.75582 0.999088
1370 4 0.0845991 0.863511 0.996948
657 2 0.389674 0.419598 0.501187
1432 4 0.300568 0.845124 0.503304
673 4 0.581206 0.0776134 0.0375745
225 2 0.836812 0.0656239 0.079265
1150 4 0.756409 0.983334 0.0173921
226 4 0.831027 0.053816 0.045687
1152 2 0.861734 0.0470019 9.59078e-05
1153 4 0.890047 0.0334369 0.0178377
83 4 0.928328 0.0423127 0.02497
385 4 0.557363 0.172787 0.0145949
461 4 0.546895 0.164777 0.0510051
459 2 0.567609 0.163389 0.0804908
672 2 0.605511 0.0944877 0.0581878
1167 2 0.642672 0.148845 0.00754428
1168 4 0.622143 0.129891 0.0303411
674 4 0.629817 0.111362 0.0788007
732 2 0.805865 0.111658 0.0180957
733 4 0.804289 0.13761 0.0430835
102 2 0.825435 0.190003 0.0592353
925 4 0.975224 0.982405 0.498809
104 4 0.821155 0.224875 0.0673619
888 2 0.86211 0.281831 0.0475271
941 4 0.821655 0.319278 0.0416269
890 4 0.832923 0.291758 0.0662337
889 4 0.891298 0.271905 0.0288199
939 2 0.819954 0.353559 0.0305671
940 4 0.818253 0.387841 0.0195077
1294 4 0.904636 0.487553 0.0574788
740 4 0.894552 0.4507 0.0437194
810 2 0.960973 0.437276 0.0653197
812 4 0.931668 0.457267 0.0588272
811 4 0.990277 0.417286 0.0718116
649 4 0.998575 0.295341 0.47735
70 4 0.624029 0.555961 0.0571343
1295 4 0.915456 0.546946 0.0180171
1293 2 0.910046 0.517251 0.0377479
69 2 0.622959 0.588121 0.0408559
71 4 0.621889 0.620281 0.0245771
222 2 0.701615 0.596372 0.0357716
224 4 0.679314 0.601986 0.00799493
731 4 0.887873 0.607807 0.0672789
785 4 0.56958 0.320656 0.454081
1200 2 0.985821 0.480441 0.393616
106 4 0.644509 0.687262 0.0847503
369 2 0.515319 0.765666 0.323058
1163 4 0.602076 0.824442 0.111538
1161 2 0.584407 0.793007 0.111749
1509 2 0.702385 0.804806 0.0739707
706 4 0.539922 0.503475 0.49194
1125 2 0.634151 0.882788 0.0809914
1126 4 0.615606 0.854085 0.0925088
1510 4 0.712984 0.794619 0.0410423
311 4 0.806865 0.894607 0.0464624
309 2 0.79706 0.928907 0.0517331
1109 4 0.599432 0.948109 0.0393357
1149 2 0.745479 0.0150519 0.0306191
1151 4 0.734549 0.0467691 0.0438463
1202 4 0.975626 0.45149 0.374688
1341 2 0.537261 0.993604 0.130843
1343 4 0.556736 0.97572 0.106322
1342 4 0.517785 0.0114897 0.155363
227 4 0.842598 0.0774313 0.112843
489 2 0.931172 0.0426106 0.099868
491 4 0.897521 0.0555116 0.101118
490 4 0.964823 0.0297097 0.0986182
460 4 0.588324 0.162 0.109976
1285 4 0.643141 0.140169 0.0971095
1217 4 0.662452 0.0761023 0.183899
1215 2 0.629781 0.0807842 0.169369
656 4 0.808693 0.0673862 0.121636
546 2 0.511656 0.698202 0.0203425
1284 2 0.643452 0.173966 0.0845363
1286 4 0.643763 0.207763 0.0719633
1147 4 0.730951 0.280975 0.215278
103 4 0.829716 0.155132 0.0511087
1122 2 0.870745 0.21839 0.134612
1123 4 0.865162 0.18285 0.132132
592 4 0.541066 0.28799 0.107709
1146 2 0.758837 0.266861 0.19729
1148 4 0.786723 0.252747 0.179301
1376 4 0.895051 0.281833 0.148561
1107 2 0.577993 0.962385 0.0140973
1155 2 0.984131 0.271813 0.100227
1156 4 0.962107 0.295345 0.1164
591 2 0.558951 0.319177 0.104903
593 4 0.576835 0.350365 0.102097
766 4 0.837239 0.359731 0.159541
857 4 0.950524 0.552233 0.0221365
223 4 0.723916 0.590758 0.0635477
730 4 0.843823 0.651182 0.104425
729 2 0.865848 0.629494 0.0858522
262 4 0.863145 0.660879 0.133373
551 4 0.993989 0.654932 0.0960284
549 2 0.975162 0.656459 0.126747
550 4 0.956335 0.657986 0.157466
107 4 0.699274 0.722847 0.0541542
1010 4 0.675277 0.764252 0.195849
105 2 0.671892 0.705054 0.069452
366 2 0.789827 0.744339 0.115637
368 4 0.811127 0.77342 0.11463
367 4 0.768527 0.715258 0.116644
1162 4 0.566738 0.761572 0.11196
1511 4 0.691785 0.814993 0.106899
1008 2 0.687746 0.779202 0.165495
1009 4 0.700215 0.794153 0.13514
1127 4 0.652696 0.911491 0.0694735
1344 2 0.982945 0.895525 0.0919378
1346 4 0.950705 0.911527 0.0897182
252 2 0.648812 0.938014 0.195195
254 4 0.680461 0.944725 0.179266
310 4 0.787255 0.963207 0.0570041
727 4 0.520674 0.0735583 0.215318
726 2 0.549468 0.0684092 0.194228
1409 4 0.706481 0.995182 0.203363
1407 2 0.734054 0.00588182 0.223993
1408 4 0.761627 0.0165818 0.244625
1460 4 0.788807 0.993544 0.239048
1458 2 0.821715 0.00805913 0.241658
655 4 0.779537 0.0880326 0.184288
1474 4 0.892577 0.0110133 0.241085
154 4 0.846285 0.107463 0.21599
956 4 0.962342 0.0860502 0.214123
954 2 0.979072 0.0589026 0.230961
955 4 0.995802 0.031755 0.247798
728 4 0.578262 0.0632597 0.173138
1216 4 0.597111 0.0854663 0.154838
654 2 0.794115 0.0777093 0.152962
690 2 0.782029 0.113892 0.249022
691 4 0.772902 0.107461 0.214733
153 2 0.871784 0.0824918 0.210827
155 4 0.897283 0.0575213 0.205663
1124 4 0.876327 0.25393 0.137091
1374 2 0.91892 0.30403 0.133135
1375 4 0.942789 0.326227 0.117709
1210 4 0.895628 0.402502 0.225437
765 2 0.850111 0.384033 0.182868
1209 2 0.922651 0.37867 0.223932
1211 4 0.949673 0.354839 0.222427