ITEM: TIMESTEP
1181500
ITEM: NUMBER OF ATOMS
1520
ITEM: BOX BOUNDS pp pp pp
-6.9326749999999997e+00 6.9326749999999997e+00
-6.9326749999999997e+00 6.9326749999999997e+00
-6.9326749999999997e+00 6.9326749999999997e+00
ITEM: ATOMS id type xs ys zs
620 4 0.141121 0.057262 0.0803409
618 2 0.166566 0.0349989 0.0928829
318 2 0.114855 0.147768 0.0297887
319 4 0.140425 0.167875 0.0453554
320 4 0.0892852 0.127662 0.0142226
1472 4 0.218005 0.152785 0.00397056
444 2 0.413778 0.16772 0.00935211
809 4 0.124066 0.184704 0.0745464
1470 2 0.233293 0.170338 0.0315129
1471 4 0.24858 0.18789 0.0590564
451 4 0.235226 0.20834 0.092786
864 2 0.218547 0.253758 0.0635404
866 4 0.209592 0.256662 0.0287296
445 4 0.424236 0.185127 0.0391518
402 2 0.475426 0.216194 0.0561522
403 4 0.445327 0.198496 0.0651645
980 4 0.437601 0.929717 0.467001
865 4 0.227503 0.250852 0.0983509
955 4 0.446015 0.308141 0.0132822
245 4 0.0444665 0.372592 0.0671599
243 2 0.0209296 0.398521 0.0757704
315 2 0.293922 0.402116 0.0292709
316 4 0.306996 0.382523 0.0565756
1411 4 0.210084 0.516706 0.0151224
1227 2 0.320407 0.542084 0.0442762
1228 4 0.306322 0.528264 0.014093
1031 4 0.364749 0.541421 0.0937793
247 4 0.0858618 0.644422 0.00957137
246 2 0.0726448 0.637183 0.0423327
248 4 0.059428 0.629944 0.0750944
842 4 0.331737 0.666991 0.0707086
1229 4 0.334493 0.555905 0.0744591
571 4 0.409374 0.611414 0.0226739
572 4 0.435898 0.605882 0.0895132
570 2 0.422636 0.608648 0.0560938
746 4 0.213783 0.73684 0.0202313
840 2 0.345873 0.670708 0.0377427
841 4 0.360009 0.674425 0.00477623
182 4 0.347666 0.787271 0.0109905
180 2 0.355544 0.814348 0.033467
106 4 0.00732454 0.513654 0.332205
181 4 0.363421 0.841425 0.0559439
770 4 0.464003 0.917477 0.0242275
768 2 0.439982 0.89533 0.00896861
619 4 0.192011 0.0127364 0.105425
363 2 0.446238 0.976783 0.0721676
365 4 0.467672 0.948512 0.0657037
682 4 0.353996 0.0808753 0.100724
681 2 0.388093 0.0706219 0.0950051
622 4 0.072879 0.109298 0.155101
1389 2 0.343778 0.0829138 0.156802
1391 4 0.359881 0.0635413 0.130998
683 4 0.422189 0.0603679 0.0892862
808 4 0.195749 0.190699 0.0797675
807 2 0.159907 0.187701 0.0771571
450 2 0.26966 0.198616 0.0972723
452 4 0.304095 0.188892 0.101758
969 2 0.0217332 0.312251 0.177131
971 4 0.0323486 0.326152 0.145595
209 4 0.103497 0.237644 0.079006
207 2 0.102865 0.262373 0.105245
208 4 0.102234 0.287101 0.131486
1482 2 0.402937 0.324722 0.124204
710 4 0.356112 0.315575 0.0790011
1484 4 0.437171 0.322317 0.135278
244 4 0.997393 0.42445 0.084381
1466 4 0.206131 0.408499 0.125587
1370 4 0.206406 0.398892 0.159901
709 4 0.305502 0.3663 0.0871989
1483 4 0.368702 0.327127 0.113131
708 2 0.330807 0.340938 0.0830997
1201 4 0.056293 0.453838 0.160118
1200 2 0.0247876 0.444937 0.144999
1465 4 0.181813 0.47395 0.10752
1464 2 0.193972 0.441225 0.116553
436 4 0.334749 0.479654 0.184556
435 2 0.349336 0.483004 0.151746
437 4 0.363921 0.486354 0.118937
1030 4 0.377634 0.592169 0.14338
1029 2 0.371192 0.566794 0.11858
317 4 0.280846 0.421709 0.00196605
1302 2 0.469222 0.507319 0.117573
1303 4 0.434012 0.514485 0.12063
1190 4 0.205395 0.666173 0.16685
1406 4 0.113098 0.754246 0.099319
1188 2 0.222002 0.697224 0.159078
1189 4 0.238609 0.728277 0.151306
400 4 0.228228 0.753791 0.123392
199 4 0.370541 0.699674 0.121352
198 2 0.350484 0.708815 0.149893
31 1 0.44651 0.735343 0.143565
34 3 0.454531 0.703049 0.140008
1138 4 0.489144 0.719517 0.148662
1404 2 0.137354 0.776163 0.114541
1405 4 0.16161 0.79808 0.129764
399 2 0.225858 0.777605 0.150367
831 2 0.404504 0.805 0.142926
832 4 0.388929 0.829037 0.164835
833 4 0.42008 0.780961 0.121017
33 3 0.416822 0.741375 0.129347
32 3 0.469568 0.753842 0.128509
1428 2 0.186238 0.923926 0.144425
224 4 0.350365 0.858225 0.0930913
222 2 0.3634 0.881011 0.117815
223 4 0.376435 0.903798 0.142539
1429 4 0.15403 0.928511 0.159982
125 4 0.36991 0.959976 0.0714516
123 2 0.382494 0.953494 0.104618
124 4 0.395077 0.947011 0.137786
364 4 0.424805 0.00505358 0.0786303
1051 4 0.463511 0.957834 0.152209
1050 2 0.491581 0.979546 0.158618
623 4 0.0156134 0.0738855 0.18095
51 2 0.263411 0.0476578 0.224534
53 4 0.265054 0.0137399 0.212398
1151 4 0.0586514 0.137278 0.173037
621 2 0.0442464 0.0915916 0.168025
1149 2 0.0745136 0.163028 0.192676
1390 4 0.327676 0.102287 0.182605
835 4 0.35349 0.0966405 0.204693
834 2 0.367733 0.0989734 0.237739
1150 4 0.0903758 0.18878 0.212315
192 2 0.0175804 0.214295 0.235243
193 4 0.0291718 0.233449 0.206974
743 4 0.11386 0.17655 0.239894
741 2 0.138266 0.201363 0.249333
496 4 0.162405 0.248704 0.229107
39 3 0.226642 0.182662 0.23188
502 4 0.254809 0.19198 0.256636
503 4 0.316042 0.217123 0.227999
501 2 0.285425 0.204552 0.242318
433 4 0.398619 0.263143 0.215078
970 4 0.0111181 0.29835 0.208666
497 4 0.138573 0.290855 0.175657
495 2 0.15049 0.269779 0.202382
668 4 0.144075 0.283793 0.242441
434 4 0.456617 0.303759 0.228795
432 2 0.427618 0.283452 0.221937
1283 4 0.0941252 0.398429 0.222909
1281 2 0.0835536 0.408893 0.255759
1368 2 0.241238 0.397776 0.169165
115 4 0.251518 0.345229 0.245497
1369 4 0.276071 0.396662 0.178429
965 4 0.455791 0.426324 0.234779
613 4 0.474971 0.406268 0.211592
614 4 0.473023 0.334559 0.219045
612 2 0.473997 0.370414 0.215319
632 4 0.0518238 0.474864 0.189003
630 2 0.0649105 0.484195 0.221284
885 2 0.0961155 0.55525 0.235695
904 4 0.130903 0.63376 0.192891
903 2 0.114812 0.65432 0.217768
887 4 0.114865 0.58044 0.217964
905 4 0.0987224 0.67488 0.242643
1440 2 0.285104 0.73952 0.194356
1442 4 0.250724 0.729307 0.198118
200 4 0.330427 0.717957 0.178433
1441 4 0.319483 0.749734 0.190594
362 4 0.460316 0.756656 0.202983
211 4 0.123339 0.809237 0.243773
1037 4 0.161433 0.791207 0.165333
401 4 0.223489 0.801419 0.177343
1035 2 0.168864 0.820528 0.184966
874 4 0.236908 0.782546 0.205922
873 2 0.237897 0.781978 0.241965
695 4 0.362991 0.80202 0.246667
693 2 0.379355 0.822078 0.221562
35 3 0.445468 0.743185 0.175443
210 2 0.1019 0.837861 0.239139
212 4 0.0804605 0.866484 0.234505
1036 4 0.176296 0.849848 0.2046
1430 4 0.218446 0.919341 0.128867
228 2 0.214494 0.875835 0.233465
229 4 0.214297 0.85252 0.205957
694 4 0.39572 0.842136 0.196457
1061 4 0.350069 0.908074 0.170869
1059 2 0.344502 0.905807 0.206426
514 4 0.00510592 0.0223007 0.187944
739 4 0.276713 0.937333 0.210852
1060 4 0.338936 0.903539 0.241983
202 4 0.0671737 0.0205198 0.326265
110 4 0.0976532 0.0371366 0.318507
1496 4 0.203778 0.0204748 0.272241
52 4 0.261767 0.0815761 0.236669
698 4 0.304609 0.0212936 0.330386
696 2 0.289797 0.997217 0.307996
1045 4 0.300402 0.0494661 0.313459
1044 2 0.329249 0.0706926 0.31767
977 4 0.438013 0.0626451 0.298214
40 3 0.216616 0.155558 0.277855
1046 4 0.358094 0.0919203 0.32188
836 4 0.381977 0.101307 0.270785
975 2 0.431737 0.0950538 0.31273
719 4 0.485885 0.15403 0.253366
194 4 0.00598931 0.195141 0.263513
546 2 0.0577648 0.207193 0.333074
547 4 0.0688447 0.24135 0.329769
742 4 0.162672 0.226175 0.258771
160 4 0.101284 0.225861 0.337507
36 1 0.214173 0.184683 0.26287
38 3 0.18213 0.194264 0.261689
37 3 0.23149 0.207245 0.279947
1231 4 0.321959 0.232329 0.261266
1056 2 0.299731 0.222217 0.314913
1058 4 0.294225 0.251201 0.294176
717 2 0.485015 0.186249 0.269543
159 2 0.12051 0.256003 0.332792
161 4 0.139736 0.286151 0.328079
666 2 0.156559 0.294186 0.274636
667 4 0.169059 0.304562 0.306834
830 4 0.206619 0.295462 0.31924
828 2 0.219706 0.263207 0.309772
116 4 0.200297 0.326214 0.292587
829 4 0.232784 0.230963 0.300308
1230 2 0.349576 0.253179 0.251114
1232 4 0.377193 0.274028 0.240964
1282 4 0.0729813 0.419359 0.288609
655 4 0.0321915 0.417295 0.297547
678 2 0.163104 0.37955 0.293206
680 4 0.164982 0.344853 0.302806
114 2 0.225909 0.335725 0.269039
635 4 0.330695 0.410666 0.301756
633 2 0.36083 0.407203 0.321258
634 4 0.390965 0.40374 0.340759
91 4 0.262098 0.0987923 0.00272349
1248 2 0.470521 0.392574 0.322625
654 2 0.0518532 0.439671 0.317873
631 4 0.0779963 0.493528 0.253565
656 4 0.0715159 0.462046 0.338199
679 4 0.161218 0.414257 0.283603
1388 4 0.225495 0.503753 0.312467
61 4 0.437507 0.493446 0.323059
963 2 0.487243 0.441289 0.244118
886 4 0.077366 0.530061 0.253425
944 4 0.48557 0.532606 0.29198
942 2 0.502115 0.519333 0.321144
536 4 0.0133377 0.66055 0.299781
1081 4 0.309155 0.615927 0.322038
1080 2 0.288794 0.586305 0.324931
968 4 0.34124 0.62775 0.323241
966 2 0.376881 0.630842 0.318707
967 4 0.412522 0.633935 0.314172
557 4 0.0807479 0.731788 0.276889
361 4 0.448088 0.717586 0.26236
360 2 0.454202 0.737121 0.232671
1337 4 0.025863 0.786243 0.25895
1335 2 0.00722424 0.78702 0.289811
556 4 0.108414 0.798366 0.278765
555 2 0.0945804 0.765077 0.277827
875 4 0.238885 0.781411 0.278008
313 4 0.247382 0.778179 0.310699
508 4 0.394376 0.793021 0.262497
507 2 0.387965 0.799097 0.297459
509 4 0.381552 0.805175 0.332421
1367 4 0.0626683 0.87404 0.298937
1366 4 0.010467 0.906745 0.336447
1365 2 0.0365682 0.890393 0.317692
230 4 0.214691 0.899152 0.260974
203 4 0.0168356 0.973972 0.303883
201 2 0.042005 0.997245 0.315075
1494 2 0.198042 0.988046 0.286934
1495 4 0.192304 0.955618 0.301626
740 4 0.245953 0.970922 0.266773
697 4 0.274986 0.973141 0.285605
738 2 0.261333 0.954127 0.238813
302 4 0.378093 0.985612 0.262317
300 2 0.366653 0.992999 0.295708
301 4 0.355213 0.000387479 0.3291
108 2 0.126382 0.0537473 0.33262
109 4 0.155109 0.0703583 0.346732
374 4 0.186778 0.0675639 0.353353
372 2 0.203943 0.0402283 0.36943
373 4 0.221108 0.0128929 0.385508
533 4 0.397256 0.141909 0.349481
531 2 0.375963 0.162952 0.369586
976 4 0.42546 0.127462 0.327245
548 4 0.0466846 0.173035 0.33638
1057 4 0.305238 0.193232 0.33565
532 4 0.35467 0.183995 0.389693
811 4 0.0210002 0.292911 0.344808
812 4 0.0781705 0.278866 0.386468
810 2 0.0495856 0.285888 0.365638
1258 4 0.149602 0.325348 0.335859
827 4 0.189715 0.330226 0.331642
272 4 0.175078 0.295169 0.345902
271 4 0.188523 0.256878 0.405537
270 2 0.181801 0.27602 0.375724
978 2 0.46831 0.933168 0.448414
1493 4 0.428877 0.927304 0.413049
783 2 0.00530155 0.364176 0.415021
166 4 0.0452491 0.950014 0.446915
1257 2 0.117918 0.328274 0.352812
1259 4 0.0862329 0.331206 0.36978
825 2 0.197164 0.354426 0.357332
826 4 0.204621 0.37861 0.383022
1249 4 0.435568 0.393071 0.331484
1073 4 0.0614432 0.484109 0.364298
135 2 0.183086 0.476244 0.395686
136 4 0.209153 0.457805 0.412447
1178 4 0.289348 0.448738 0.354154
1176 2 0.292838 0.456517 0.389192
62 4 0.421531 0.431133 0.355672
60 2 0.429519 0.46229 0.339366
286 4 0.488088 0.417478 0.402935
1071 2 0.0932365 0.498609 0.373205
1072 4 0.12503 0.513109 0.382113
1386 2 0.245615 0.520332 0.337381
1387 4 0.265736 0.536912 0.362296
1082 4 0.268433 0.556683 0.327823
137 4 0.157018 0.494683 0.378925
1209 2 0.252265 0.559576 0.426275
71 4 0.449339 0.582036 0.407716
69 2 0.425432 0.557389 0.418735
1145 4 0.00983211 0.604449 0.346178
1143 2 0.0268609 0.618524 0.374679
1144 4 0.0438906 0.632598 0.403181
1210 4 0.235361 0.566937 0.395285
991 4 0.491436 0.673919 0.416556
1480 4 0.0547013 0.68794 0.427196
1108 4 0.0531691 0.824137 0.381652
1107 2 0.0221942 0.810416 0.369296
312 2 0.267734 0.788091 0.338769
122 4 0.318918 0.784595 0.378129
314 4 0.288086 0.798003 0.366839
120 2 0.353424 0.793595 0.372758
121 4 0.387928 0.802595 0.367388
815 4 0.0712413 0.855399 0.417006
813 2 0.0981822 0.838824 0.434322
814 4 0.125123 0.822249 0.451639
1491 2 0.416582 0.910263 0.383742
1492 4 0.404286 0.893222 0.354435
1103 4 0.47655 0.998328 0.420164
1462 4 0.327951 0.0708412 0.462681
1461 2 0.31872 0.0595701 0.495668
1326 2 0.0512027 0.158383 0.462326
1327 4 0.0342605 0.15951 0.430512
1153 4 0.0162529 0.180303 0.453588
472 4 0.100868 0.298979 0.407401
471 2 0.0911114 0.329603 0.423754
1393 4 0.4334 0.32178 0.466751
1392 2 0.447999 0.296884 0.488371
1394 4 0.462598 0.271988 0.509992
776 4 0.0991808 0.394579 0.438837
473 4 0.0813557 0.360228 0.440106
785 4 0.0265821 0.363645 0.444129
774 2 0.104286 0.410888 0.470592
1334 4 0.282052 0.0739153 0.020989
859 4 0.330623 0.471219 0.42831
1177 4 0.296327 0.464297 0.424231
858 2 0.360914 0.487184 0.439621
1241 4 0.105038 0.504971 0.496744
1211 4 0.269168 0.552214 0.457268
70 4 0.401525 0.532743 0.429755
860 4 0.391206 0.503149 0.450932
995 4 0.0515674 0.611679 0.441873
1479 2 0.0488706 0.661243 0.450728
993 2 0.0273895 0.58654 0.451031
1481 4 0.043041 0.634547 0.474259
663 2 0.28747 0.63111 0.470748
664 4 0.263475 0.608261 0.484979
665 4 0.311466 0.653959 0.456515
349 4 0.480002 0.663505 0.447729
1519 4 0.0418809 0.744969 0.457588
957 2 0.315141 0.743203 0.460579
958 4 0.321027 0.708113 0.46645
718 4 0.484144 0.218466 0.28572
348 2 0.473932 0.678792 0.479821
962 4 0.450599 0.723001 0.492936
1520 4 0.0404339 0.814887 0.439954
262 4 0.0150352 0.820577 0.46708
1518 2 0.0411573 0.779929 0.448771
892 4 0.0978695 0.812973 0.498236
1087 4 0.213644 0.821176 0.458649
1086 2 0.248034 0.810661 0.461313
1088 4 0.282424 0.800144 0.463978
959 4 0.309255 0.778292 0.454708
960 2 0.455025 0.757963 0.48529
961 4 0.459451 0.792925 0.477645
1111 4 0.439314 0.817195 0.462401
167 4 0.0605944 0.881359 0.46281
1112 4 0.424595 0.886524 0.449042
1110 2 0.431954 0.851859 0.455721
165 2 0.0529216 0.915687 0.454862
19 3 0.477187 0.946041 0.0285535
1043 4 0.216141 0.729114 0.496427
1100 4 0.493263 0.208531 0.320048
285 2 0.496859 0.445028 0.381379
994 4 0.00321243 0.5614 0.460191
1328 4 0.0681443 0.157256 0.49414
1309 4 0.0612215 0.195954 0.499575
1132 4 0.0786116 0.0900828 0.570042
699 2 0.257459 0.0592282 0.548742
1463 4 0.30949 0.0482997 0.528655
700 4 0.286473 0.0399715 0.558107
1131 2 0.0538026 0.087625 0.596097
43 3 0.0534587 0.152154 0.527006
1288 4 0.00226434 0.621437 0.598827
44 3 0.106644 0.143215 0.517216
41 1 0.0845547 0.156403 0.538618
45 3 0.0875746 0.142138 0.56805
701 4 0.228443 0.0784855 0.539378
583 4 0.476957 0.160844 0.601685
1308 2 0.074641 0.227689 0.510217
385 4 0.209794 0.897583 0.991469
42 3 0.0905583 0.1889 0.541559
1324 4 0.433099 0.218738 0.517665
1325 4 0.470245 0.211083 0.57901
1075 4 0.407611 0.242619 0.529369
1323 2 0.451672 0.21491 0.548337
1310 4 0.0880607 0.259424 0.520859
456 2 0.0914798 0.313677 0.527064
457 4 0.113241 0.286858 0.516693
1076 4 0.37276 0.305761 0.528994
1074 2 0.390185 0.27419 0.529182
458 4 0.0697176 0.340496 0.537434
775 4 0.109391 0.427197 0.502348
277 4 0.129291 0.413175 0.576081
469 4 0.177672 0.321367 0.574063
468 2 0.196489 0.341589 0.550882
470 4 0.215306 0.36181 0.527699
820 4 0.298628 0.380361 0.556712
296 4 0.327815 0.354944 0.556343
1239 2 0.0965772 0.474672 0.514374
911 4 0.116974 0.4688 0.576571
1240 4 0.0881164 0.444372 0.532002
1347 2 0.274347 0.566743 0.550108
1348 4 0.240849 0.575286 0.53984
1349 4 0.307843 0.558201 0.560376
856 4 0.342251 0.570135 0.56547
855 2 0.368465 0.552777 0.547808
857 4 0.394679 0.535418 0.530146
1122 2 0.094699 0.668618 0.539237
1467 2 0.137165 0.585715 0.578889
1123 4 0.114812 0.654003 0.513117
1468 4 0.136747 0.612463 0.554707
1124 4 0.0745862 0.683234 0.565358
489 2 0.169365 0.690128 0.513899
491 4 0.134981 0.682186 0.521314
16 1 0.489839 0.959494 0.00064521
490 4 0.20375 0.698071 0.506484
1513 4 0.409493 0.719072 0.555953
1512 2 0.439355 0.730114 0.572887
75 2 0.0648364 0.820832 0.556691
76 4 0.090485 0.826658 0.53202
893 4 0.166913 0.817656 0.518551
891 2 0.132392 0.815314 0.508393
1041 2 0.203217 0.762174 0.502788
1042 4 0.190295 0.795232 0.509148
1213 4 0.346537 0.770136 0.558388
1446 2 0.150774 0.93518 0.523279
1447 4 0.139129 0.902224 0.532151
1448 4 0.162418 0.968136 0.514406
1009 4 0.0502758 0.0654896 0.640318
1008 2 0.0597128 0.0311483 0.645976
1095 2 0.399862 0.0343458 0.601002
1096 4 0.379953 0.0641772 0.597242
1097 4 0.419771 0.00451466 0.604762
393 2 0.474344 0.0134089 0.631804
395 4 0.494253 0.031211 0.656034
1133 4 0.0289936 0.0851672 0.622152
406 4 0.106852 0.150891 0.599901
405 2 0.10515 0.136209 0.632794
407 4 0.103447 0.121527 0.665687
162 2 0.325284 0.16126 0.658692
164 4 0.323993 0.127176 0.646987
584 4 0.488492 0.135506 0.668218
582 2 0.482724 0.148174 0.634951
524 4 0.00634952 0.162275 0.629461
522 2 0.0370115 0.178206 0.639779
424 4 0.459446 0.248819 0.65511
525 2 0.119566 0.304377 0.604943
527 4 0.147012 0.30759 0.581776
526 4 0.0921186 0.301163 0.628111
1253 4 0.321427 0.322192 0.6317
295 4 0.351911 0.3168 0.612611
276 2 0.140388 0.412283 0.610381
278 4 0.151486 0.411391 0.644681
819 2 0.279978 0.381565 0.587554
821 4 0.261329 0.382769 0.618395
294 2 0.339863 0.335872 0.584477
1425 2 0.0390563 0.476484 0.606298
1000 4 0.365653 0.485714 0.618907
999 2 0.401329 0.488946 0.614755
1033 4 0.449328 0.436172 0.657719
1001 4 0.437004 0.492178 0.610603
791 4 0.463982 0.979321 0.897393
1032 2 0.482838 0.447924 0.651442
1426 4 0.0715345 0.480786 0.621367
1469 4 0.137583 0.558967 0.60307
910 4 0.146371 0.525769 0.609616
909 2 0.131672 0.497284 0.593093
486 2 0.496933 0.52797 0.610424
488 4 0.468446 0.546788 0.598812
1287 2 0.0342819 0.636579 0.592042
1517 4 0.0645758 0.650258 0.653562
1438 4 0.480812 0.594223 0.653126
1289 4 0.0662997 0.65172 0.585257
412 4 0.162211 0.719633 0.591509
411 2 0.139582 0.739518 0.611331
1216 4 0.0969871 0.739223 0.652148
1514 4 0.469216 0.741155 0.589821
467 4 0.474405 0.770632 0.60419
77 4 0.0391883 0.815007 0.581361
413 4 0.116952 0.759402 0.631153
1214 4 0.29614 0.777546 0.609445
1212 2 0.321339 0.773841 0.583917
254 4 0.276182 0.796546 0.631788
368 4 0.278614 0.81856 0.660108
49 3 0.342137 0.83049 0.659296
18 3 0.477043 0.944201 0.973771
465 2 0.49555 0.799334 0.609619
1371 2 0.0200602 0.906575 0.667607
1372 4 0.0200892 0.870659 0.664385
50 3 0.381966 0.844128 0.624996
46 1 0.364038 0.854247 0.650589
47 3 0.347345 0.881631 0.642093
881 4 0.0691367 0.988562 0.617759
1010 4 0.0691495 0.996807 0.651635
1373 4 0.0200313 0.942492 0.670828
880 4 0.117988 0.949744 0.581588
879 2 0.093562 0.969153 0.599673
146 4 0.397703 0.957332 0.671514
144 2 0.392192 0.923007 0.661931
145 4 0.38668 0.888681 0.652349
394 4 0.454435 0.995607 0.607573
474 2 0.0398359 0.152602 0.738192
476 4 0.0573994 0.122373 0.729352
523 4 0.0676741 0.194137 0.650096
173 4 0.0664533 0.175223 0.68201
171 2 0.0883661 0.200874 0.694749
172 4 0.110279 0.226526 0.707488
163 4 0.326577 0.195344 0.670397
425 4 0.491171 0.204451 0.702298
423 2 0.475309 0.226635 0.678704
1157 4 0.0240641 0.377927 0.73841
1361 4 0.99828 0.308593 0.704679
1251 2 0.334561 0.323497 0.665259
1252 4 0.347695 0.3248 0.698818
851 4 0.359788 0.31497 0.730989
849 2 0.393726 0.324986 0.724036
850 4 0.427664 0.335002 0.717083
1456 4 0.0137676 0.389074 0.672725
1155 2 0.0347855 0.374809 0.704121
1156 4 0.0455078 0.371692 0.669831
241 4 0.0980017 0.37667 0.755133
240 2 0.0864572 0.410019 0.747719
1039 4 0.161521 0.395732 0.726646
242 4 0.0749121 0.443368 0.740306
1423 4 0.0481922 0.51213 0.759302
611 4 0.0300463 0.512015 0.726757
609 2 0.0355074 0.5472 0.721042
610 4 0.0409679 0.582385 0.715327
800 4 0.179271 0.504013 0.692833
798 2 0.187984 0.527149 0.719086
1516 4 0.0244008 0.605699 0.693588
1515 2 0.0444886 0.627979 0.673575
528 2 0.218117 0.62256 0.686018
529 4 0.213014 0.612038 0.720131
530 4 0.22322 0.633082 0.651905
1437 2 0.489703 0.599964 0.687598
589 4 0.0828908 0.675645 0.694107
588 2 0.0970624 0.676534 0.727255
660 2 0.172979 0.738863 0.742508
661 4 0.191464 0.708067 0.745725
1215 2 0.0826728 0.765386 0.672421
1217 4 0.0683582 0.791548 0.692695
662 4 0.154494 0.769658 0.739291
793 4 0.0793288 0.820934 0.711629
252 2 0.283589 0.768642 0.653398
253 4 0.290997 0.740739 0.675008
7 3 0.327499 0.777428 0.741634
792 2 0.0490084 0.839116 0.704524
794 4 0.0186873 0.857298 0.697419
367 4 0.261336 0.864374 0.713063
366 2 0.269975 0.841467 0.686585
84 2 0.401636 0.857313 0.745107
85 4 0.39182 0.853757 0.71059
48 3 0.384053 0.861366 0.676448
236 4 0.00420057 0.963064 0.693963
441 2 0.0778083 0.0805953 0.775901
442 4 0.0879559 0.0476307 0.786427
1066 4 0.0671306 0.0467738 0.816222
443 4 0.0676597 0.11356 0.765376
358 4 0.356995 0.178871 0.771141
1069 4 0.349952 0.0966413 0.748697
1068 2 0.357992 0.0981065 0.78382
1070 4 0.36603 0.0995721 0.818943
1450 4 0.492566 0.167113 0.764359
23 3 0.456667 0.172372 0.769371
21 1 0.469603 0.168902 0.800044
25 3 0.464231 0.13844 0.81109
475 4 0.0222729 0.18283 0.747032
1197 2 0.0497295 0.221184 0.824217
357 2 0.391703 0.182244 0.780326
359 4 0.426403 0.185621 0.789518
22 3 0.454961 0.190641 0.820383
1199 4 0.0339969 0.251993 0.834401
1038 2 0.169724 0.40649 0.760073
461 4 0.175066 0.359901 0.834219
1424 4 0.0855729 0.45287 0.776413
1422 2 0.066883 0.4825 0.767858
1166 4 0.121367 0.474261 0.835402
1164 2 0.142345 0.503185 0.840276
415 4 0.134209 0.435698 0.813972
1040 4 0.177929 0.417248 0.7935
1184 4 0.376095 0.478149 0.781588
1183 4 0.342921 0.42108 0.810645
1182 2 0.359508 0.449615 0.796116
799 4 0.196698 0.550284 0.74534
82 4 0.198666 0.562596 0.77942
81 2 0.191455 0.564043 0.814723
375 2 0.0355563 0.65636 0.80447
376 4 0.0509316 0.624529 0.811598
781 4 0.429716 0.646178 0.786717
377 4 0.0201814 0.688191 0.797343
592 4 0.00671505 0.719938 0.807214
590 4 0.111233 0.677422 0.760404
1352 4 0.214009 0.716205 0.772116
1350 2 0.217067 0.712674 0.807873
67 4 0.420931 0.739549 0.807177
782 4 0.434731 0.718023 0.78287
780 2 0.432224 0.682101 0.784794
6 1 0.328783 0.797389 0.768102
10 3 0.331035 0.779139 0.795317
9 3 0.300925 0.81591 0.769046
8 3 0.355602 0.817223 0.765402
66 2 0.392754 0.760723 0.799557
68 4 0.364577 0.781898 0.791937
1115 4 0.360429 0.816898 0.800797
674 4 0.0489936 0.87318 0.763621
672 2 0.0556713 0.883195 0.797614
673 4 0.0623485 0.89321 0.831606
1280 4 0.179503 0.913046 0.824554
1278 2 0.174625 0.883404 0.804604
1279 4 0.169746 0.853763 0.784653
1330 4 0.275541 0.897332 0.804374
86 4 0.411451 0.860868 0.779624
1286 4 0.0792909 0.921481 0.825285
1331 4 0.299337 0.965413 0.804987
1329 2 0.287439 0.931372 0.804681
453 2 0.391055 0.982364 0.807152
454 4 0.369421 0.0111511 0.805232
455 4 0.412688 0.953577 0.80907
1067 4 0.107308 0.0404493 0.875783
1065 2 0.087219 0.0436114 0.846003
561 2 0.322826 0.0673517 0.844104
563 4 0.297134 0.0797546 0.822047
562 4 0.348517 0.054949 0.866161
1445 4 0.333193 0.0287484 0.891233
1436 4 0.37 0.0193692 0.897252
275 4 0.99238 0.113931 0.864976
1474 4 0.109896 0.125065 0.894828
1473 2 0.0907606 0.124963 0.864262
1431 2 0.194751 0.107436 0.90651
1432 4 0.189034 0.130923 0.87975
55 4 0.35971 0.112066 0.855715
54 2 0.395422 0.117022 0.854966
440 4 0.397373 0.172066 0.902043
56 4 0.431133 0.121978 0.854218
1198 4 0.0654625 0.190375 0.814032
1175 4 0.0551677 0.247124 0.887715
1475 4 0.0716255 0.124861 0.833697
1321 4 0.20487 0.166634 0.911107
305 4 0.391447 0.21582 0.926028
303 2 0.417612 0.240623 0.926834
1174 4 0.00674065 0.297763 0.904806
1173 2 0.0309539 0.272443 0.89626
459 2 0.181304 0.325593 0.843408
460 4 0.18754 0.291284 0.852596
414 2 0.147803 0.410509 0.835907
416 4 0.161397 0.385321 0.857843
266 4 0.312221 0.311449 0.918992
1160 4 0.107141 0.500563 0.926956
1165 4 0.163324 0.532109 0.845151
83 4 0.184243 0.565489 0.850026
581 4 0.128754 0.63018 0.909046
757 4 0.390005 0.568965 0.913887
1351 4 0.220125 0.709143 0.843631
481 4 0.399336 0.701951 0.911792
139 4 0.0623151 0.807482 0.888803
138 2 0.0723427 0.83685 0.870435
140 4 0.0823701 0.866219 0.852068
1019 4 0.317389 0.917549 0.884546
1114 4 0.39497 0.873223 0.829712
1113 2 0.3777 0.845061 0.815255
1018 4 0.363341 0.871966 0.852729
1017 2 0.340365 0.894757 0.868638
1284 2 0.114402 0.92968 0.825869
1285 4 0.149515 0.937878 0.826453
1434 2 0.40311 0.00647037 0.891104
1435 4 0.436219 0.993572 0.884955
789 2 0.498321 0.987588 0.904667
143 4 0.165901 0.0946275 0.942516
1433 4 0.200467 0.0839498 0.93327
1333 4 0.291502 0.0215912 0.972259
350 4 0.467863 0.694079 0.511913
1332 2 0.286777 0.0477527 0.996624
1444 4 0.318861 0.000109387 0.955856
1443 2 0.326027 0.0144289 0.923545
20 3 0.482999 0.991602 0.999586
142 4 0.118673 0.120583 0.990448
141 2 0.142287 0.107606 0.966482
1490 4 0.00907478 0.206979 0.689428
90 2 0.287367 0.123976 0.997459
92 4 0.312636 0.149159 0.992195
446 4 0.403321 0.150312 0.979552
438 2 0.411783 0.154153 0.929826
439 4 0.426194 0.136239 0.957608
921 2 0.0660432 0.243966 0.961508
922 4 0.0606496 0.242768 0.925872
923 4 0.0714357 0.245163 0.997143
1320 2 0.238482 0.168789 0.923991
1381 4 0.29842 0.19188 0.921915
1322 4 0.272095 0.170944 0.936874
1380 2 0.334276 0.188128 0.92109
1382 4 0.370132 0.184376 0.920264
265 4 0.242246 0.326884 0.910799
304 4 0.443775 0.265425 0.92764
956 4 0.432125 0.296174 0.943529
954 2 0.43907 0.302157 0.978406
282 2 0.0461849 0.395997 0.975099
284 4 0.0487219 0.364321 0.958052
264 2 0.277233 0.319167 0.914896
283 4 0.0436471 0.427674 0.992145
1158 2 0.097821 0.46576 0.925469
1159 4 0.0885006 0.430955 0.923983
231 2 0.193507 0.469309 0.956192
232 4 0.228549 0.475073 0.96246
233 4 0.158466 0.463546 0.949925
384 2 0.211243 0.932167 0.981356
1412 4 0.165972 0.564417 0.983826
870 2 0.285061 0.563195 0.948346
1410 2 0.188028 0.540561 0.999474
872 4 0.292341 0.530856 0.934146
756 2 0.358876 0.552357 0.921341
758 4 0.327746 0.535749 0.928795
478 4 0.056141 0.644554 0.984723
477 2 0.0316442 0.631581 0.961658
479 4 0.00714723 0.618607 0.938593
871 4 0.277781 0.595534 0.962544
877 4 0.403846 0.6708 0.937143
1223 4 0.49011 0.644793 0.991069
586 4 0.469345 0.650194 0.962272
580 4 0.0968578 0.683163 0.946157
579 2 0.112806 0.656671 0.927601
745 4 0.174992 0.710398 0.965481
744 2 0.194388 0.723619 0.992856
878 4 0.343844 0.659419 0.975508
876 2 0.373845 0.665109 0.956326
480 2 0.399774 0.737511 0.917777
587 4 0.425325 0.674786 0.910705
585 2 0.447336 0.66249 0.936488
344 4 0.2472 0.796147 0.934515
342 2 0.2289 0.827138 0.936753
482 4 0.400213 0.773069 0.923762
796 4 0.394854 0.809373 0.913755
795 2 0.398064 0.828235 0.944322
343 4 0.210599 0.85813 0.938991
769 4 0.415962 0.873181 0.99371
797 4 0.401274 0.847096 0.974889
386 4 0.212691 0.966751 0.971244
332 4 0.547789 0.0553021 0.017506
1004 4 0.796037 0.0695188 0.0469471
889 4 0.550727 0.0732248 0.0569179
888 2 0.554842 0.104791 0.0738619
1002 2 0.777779 0.0892818 0.0229361
1003 4 0.759522 0.109044 0.998925
1498 4 0.538317 0.225216 0.0314473
329 4 0.630907 0.254054 0.0675404
784 4 0.984021 0.364708 0.385914
1206 2 0.697398 0.201931 0.0342103
1208 4 0.690414 0.198982 0.0694658
392 4 0.735655 0.184615 0.0703239
257 4 0.502202 0.389983 0.422671
327 2 0.606545 0.280484 0.0646526
328 4 0.582183 0.306915 0.061764
1105 4 0.892102 0.288991 0.0224519
1104 2 0.882226 0.323163 0.0165209
73 4 0.973698 0.266968 0.0812007
72 2 0.953235 0.27443 0.0524608
74 4 0.932772 0.281893 0.0237205
762 2 0.555594 0.393778 0.0613636
763 4 0.556278 0.363307 0.0806385
1106 4 0.872349 0.357334 0.0105888
1250 4 0.505474 0.392076 0.313767
764 4 0.554909 0.424248 0.0420883
131 4 0.537315 0.45587 0.055813
129 2 0.549877 0.482084 0.0344705
599 4 0.689487 0.457805 0.00241298
928 4 0.644524 0.430097 0.0683248
929 4 0.706068 0.445041 0.0338199
927 2 0.675296 0.437569 0.0510726
130 4 0.562438 0.508297 0.0131278
1486 4 0.81582 0.524747 0.0403637
704 4 0.832731 0.498924 0.0231271
906 2 0.743716 0.622984 0.0729826
907 4 0.773071 0.602145 0.0750899
293 4 0.592811 0.72181 0.0896967
292 4 0.579115 0.727801 0.01914
291 2 0.585963 0.724805 0.0544181
803 4 0.701004 0.73798 0.0614789
5 3 0.785051 0.723703 0.0460225
1 1 0.779441 0.73091 0.0144726
802 4 0.650711 0.77597 0.0264212
801 2 0.675858 0.756975 0.0439503
420 2 0.737952 0.827887 0.0590858
3 3 0.757785 0.756326 0.0122423
421 4 0.723763 0.828703 0.0259434
1377 2 0.97468 0.807516 0.0616054
1378 4 0.986481 0.82448 0.0320525
1293 2 0.539996 0.8413 0.0187885
1295 4 0.512657 0.860874 0.0318229
1268 4 0.515497 0.833914 0.060125
1304 4 0.504432 0.500155 0.114515
1414 4 0.577587 0.971143 0.0145538
1415 4 0.635352 0.96104 0.0565383
1413 2 0.60647 0.966093 0.0355456
1140 2 0.703373 0.951264 0.0173009
1142 4 0.720592 0.980621 0.0292207
1141 4 0.686154 0.921907 0.00538137
417 2 0.772455 0.951429 0.0687707
418 4 0.74608 0.971411 0.0544365
845 4 0.598393 0.972075 0.131119
603 2 0.844865 0.0507565 0.0918004
605 4 0.815811 0.0454217 0.0711152
604 4 0.873918 0.0560913 0.112485
890 4 0.558956 0.136357 0.0908049
410 4 0.587245 0.15419 0.105793
408 2 0.604831 0.135965 0.131465
409 4 0.622417 0.117741 0.157136
391 4 0.746278 0.142867 0.128167
390 2 0.740967 0.163741 0.0992449
722 4 0.756458 0.123675 0.158351
58 4 0.902112 0.123412 0.098942
57 2 0.87792 0.143404 0.116705
59 4 0.853726 0.163394 0.134467
628 4 0.861009 0.237402 0.132329
629 4 0.879991 0.30556 0.146326
627 2 0.8705 0.271481 0.139327
379 4 0.567592 0.328792 0.0870417
378 2 0.572639 0.324578 0.122499
380 4 0.577684 0.320365 0.157956
347 4 0.790212 0.433374 0.148322
346 4 0.85372 0.400216 0.15663
345 2 0.821965 0.416796 0.152476
949 4 0.913303 0.362977 0.160193
948 2 0.909867 0.393598 0.14146
884 4 0.810372 0.458314 0.134933
882 2 0.788593 0.487053 0.135259
950 4 0.906431 0.42422 0.122729
1202 4 0.993283 0.436035 0.129879
493 4 0.679369 0.56315 0.146578
1485 2 0.806883 0.532373 0.0744596
1487 4 0.797947 0.539997 0.108553
326 4 0.7885 0.566182 0.128409
883 4 0.766814 0.515793 0.135583
512 4 0.59779 0.638723 0.164167
908 4 0.714362 0.643824 0.070876
325 4 0.815825 0.629342 0.106829
324 2 0.802163 0.597761 0.117619
1137 2 0.52267 0.720271 0.1354
1139 4 0.556196 0.721026 0.122138
724 4 0.67472 0.734912 0.147032
1266 2 0.529295 0.816252 0.088376
1267 4 0.543093 0.798589 0.116626
688 4 0.555162 0.763915 0.152139
725 4 0.663633 0.79914 0.116154
723 2 0.669177 0.767026 0.131593
676 4 0.769107 0.756137 0.147755
449 4 0.761594 0.796322 0.170834
1379 4 0.962879 0.790552 0.0911585
518 4 0.608432 0.896911 0.168523
422 4 0.75214 0.827072 0.0922286
1357 4 0.716847 0.92916 0.158305
1163 4 0.780316 0.850844 0.0869078
1161 2 0.802509 0.879268 0.0867728
1162 4 0.824702 0.90769 0.086638
843 2 0.573212 0.98111 0.1553
419 4 0.79883 0.931449 0.083105
397 4 0.938182 0.987565 0.187592
515 4 0.942202 0.00612453 0.219298
513 2 0.973654 0.0142126 0.203622
720 2 0.733402 0.143797 0.177427
721 4 0.710346 0.16392 0.196504
650 4 0.738258 0.176641 0.21756
1317 2 0.829929 0.235368 0.195242
648 2 0.766227 0.19227 0.234109
1319 4 0.80959 0.228399 0.224194
1318 4 0.850267 0.242337 0.16629
389 4 0.561081 0.317652 0.191698