ITEM: TIMESTEP
379000
ITEM: NUMBER OF ATOMS
1520
ITEM: BOX BOUNDS pp pp pp
-6.9326749999999997e+00 6.9326749999999997e+00
-6.9326749999999997e+00 6.9326749999999997e+00
-6.9326749999999997e+00 6.9326749999999997e+00
ITEM: ATOMS id type xs ys zs
1067 4 0.0389164 0.266933 0.388195
1065 2 0.0454498 0.291477 0.413795
1248 2 0.122131 0.032197 0.0317621
1250 4 0.148084 0.0412925 0.00843681
787 4 0.415231 0.0394293 0.0640982
786 2 0.428354 0.00584424 0.0645681
1091 4 0.486468 0.894306 0.10299
630 2 0.00629149 0.191352 0.00447956
242 4 0.454816 0.508195 0.00726354
265 4 0.0741634 0.233717 0.0715083
266 4 0.140374 0.210817 0.0543784
264 2 0.107268 0.222267 0.0629435
697 4 0.402921 0.200311 0.0168009
696 2 0.399805 0.211037 0.0510886
555 2 0.051642 0.328214 0.084748
557 4 0.0780469 0.303668 0.0839058
410 4 0.185276 0.269272 0.0507325
157 4 0.284928 0.326379 0.0185511
1144 4 0.315428 0.343402 0.000630275
156 2 0.299447 0.328429 0.0514967
1206 2 0.465271 0.293154 0.0501548
1208 4 0.475123 0.258713 0.046011
381 2 0.445294 0.391009 0.0423924
1207 4 0.455418 0.327595 0.0542987
383 4 0.441913 0.360407 0.061167
382 4 0.448675 0.421611 0.0236178
241 4 0.423133 0.444347 0.018272
240 2 0.438975 0.476271 0.0127675
860 4 0.0169751 0.519672 0.0846039
858 2 0.0422149 0.524467 0.0592986
859 4 0.0674545 0.529263 0.0339929
663 2 0.277181 0.538694 0.073564
664 4 0.274493 0.574607 0.0754186
13 3 0.329025 0.588372 0.0310375
11 1 0.356762 0.584504 0.0493578
14 3 0.360597 0.552302 0.0576216
508 4 0.415791 0.592846 0.0518593
12 3 0.382923 0.594151 0.0313796
499 4 0.00598438 0.82963 0.42631
507 2 0.440235 0.587626 0.0258656
699 2 0.4875 0.196768 0.0669112
937 4 0.224738 0.653996 0.0817623
293 4 0.292741 0.579564 0.0425673
291 2 0.282885 0.606529 0.0207452
15 3 0.354917 0.602898 0.0765069
60 2 0.499578 0.0437069 0.258814
1391 4 0.105463 0.764115 0.00701402
1465 4 0.0693101 0.508958 0.472904
432 2 0.143678 0.74677 0.0361956
938 4 0.223933 0.692008 0.0204757
936 2 0.224335 0.673001 0.051119
852 2 0.326802 0.694586 0.05935
854 4 0.299007 0.696988 0.0365017
1367 4 0.0417122 0.574391 0.460134
1066 4 0.0519832 0.31602 0.439394
433 4 0.154688 0.75443 0.0696698
1421 4 0.164529 0.795187 0.069221
1361 4 0.340599 0.780655 0.0158599
1359 2 0.354073 0.785657 0.0489335
962 4 0.454216 0.475342 0.496125
1270 4 0.477314 0.81215 0.0405562
300 2 0.492573 0.74898 0.0244044
301 4 0.472287 0.778793 0.024632
850 4 0.302695 0.905277 0.0834083
1269 2 0.456363 0.840752 0.0339663
797 4 0.441448 0.902005 0.00100067
1271 4 0.435412 0.869353 0.027376
493 4 0.0550757 0.944177 0.0174371
492 2 0.0772936 0.96544 0.0362679
929 4 0.0269096 0.929675 0.0105909
494 4 0.0995123 0.986703 0.0550991
1249 4 0.0961773 0.0231011 0.055088
849 2 0.273984 0.920554 0.0678311
795 2 0.429869 0.92819 0.022925
796 4 0.418291 0.954375 0.0448496
777 2 0.127441 0.0547222 0.146609
779 4 0.103548 0.0815395 0.149826
1382 4 0.299409 0.990085 0.221677
281 4 0.490911 0.0736938 0.179454
1373 4 0.11239 0.130735 0.0774042
1372 4 0.090697 0.111737 0.143511
1371 2 0.101544 0.121236 0.110457
524 4 0.261565 0.149734 0.149216
522 2 0.249501 0.116075 0.144526
160 4 0.297627 0.237267 0.181402
159 2 0.286974 0.20915 0.161492
161 4 0.276321 0.181034 0.141583
698 4 0.39669 0.221763 0.0853766
358 4 0.378502 0.254007 0.0915071
357 2 0.389369 0.24828 0.125412
556 4 0.0252371 0.352759 0.08559
470 4 0.120304 0.318997 0.14778
468 2 0.149294 0.332579 0.131182
469 4 0.178284 0.346161 0.114584
403 4 0.302256 0.310693 0.114917
158 4 0.313966 0.33048 0.0844423
1262 4 0.445257 0.931068 0.459009
434 4 0.132669 0.739111 0.0027212
998 4 0.122134 0.465157 0.06396
996 2 0.151165 0.446453 0.0743411
1313 4 0.0787655 0.477922 0.127955
1311 2 0.109714 0.496369 0.12644
997 4 0.180196 0.427749 0.0847223
609 2 0.267663 0.470572 0.113326
611 4 0.256504 0.436988 0.120259
1260 2 0.432398 0.912496 0.4309
1141 4 0.140813 0.547244 0.111254
1312 4 0.140662 0.514816 0.124924
1140 2 0.141821 0.561928 0.144175
610 4 0.278821 0.504155 0.106392
181 4 0.235889 0.587574 0.187207
665 4 0.279868 0.502781 0.071709
130 4 0.456568 0.543065 0.111039
131 4 0.472373 0.611999 0.125183
129 2 0.46447 0.577532 0.118112
180 2 0.232898 0.578947 0.152321
182 4 0.229906 0.57032 0.117435
77 4 0.39652 0.671383 0.15867
75 2 0.412235 0.671302 0.126214
68 4 0.00128227 0.422506 0.166899
368 4 0.486354 0.679605 0.493752
806 4 0.0543242 0.710013 0.163963
804 2 0.0891591 0.714925 0.156042
805 4 0.123995 0.719836 0.148121
248 4 0.283233 0.683305 0.149446
245 4 0.293316 0.756277 0.13581
853 4 0.354597 0.692183 0.0821992
247 4 0.348305 0.677142 0.118961
246 2 0.315769 0.680223 0.134204
76 4 0.42795 0.671221 0.0937566
314 4 0.0547628 0.545939 0.0014917
1121 4 0.452766 0.735664 0.0776118
1240 4 0.0519068 0.809504 0.143517
1420 4 0.151217 0.806351 0.139219
1419 2 0.157873 0.800769 0.10422
1241 4 0.118426 0.804742 0.116055
1239 2 0.085166 0.807123 0.129786
244 4 0.229261 0.755735 0.10267
243 2 0.261289 0.756006 0.11924
1360 4 0.367545 0.790659 0.0820072
1119 2 0.440069 0.744858 0.110087
1120 4 0.427371 0.754051 0.142563
1187 4 0.427943 0.791109 0.138584
1185 2 0.447407 0.814467 0.157974
117 2 0.0613106 0.917831 0.121479
119 4 0.0704327 0.884238 0.112059
889 4 0.127721 0.860143 0.145913
1079 4 0.256057 0.884411 0.153574
118 4 0.0521884 0.951423 0.1309
1365 2 0.0220704 0.566784 0.489404
778 4 0.151334 0.0279046 0.143394
773 4 0.189495 0.998831 0.072088
771 2 0.204166 0.96613 0.0760609
851 4 0.245272 0.935832 0.0522542
772 4 0.218838 0.933428 0.0800338
788 4 0.441477 0.972259 0.0650382
1317 2 0.1096 0.0815073 0.216774
1318 4 0.12039 0.0879509 0.182973
1319 4 0.0988112 0.0750629 0.250574
1381 4 0.259147 0.0148964 0.167225
1380 2 0.279278 0.0024906 0.194451
250 4 0.376808 0.0146123 0.174922
249 2 0.38319 0.0335785 0.204921
280 4 0.483257 0.00198093 0.17997
279 2 0.487084 0.0378373 0.179712
523 4 0.237437 0.0824165 0.139838
216 2 0.0871797 0.232197 0.248954
104 4 0.411861 0.276137 0.158111
891 2 0.080574 0.273933 0.174345
893 4 0.0680847 0.249038 0.19725
218 4 0.0621087 0.252867 0.233315
448 4 0.220394 0.294427 0.23607
892 4 0.0930628 0.298828 0.15144
447 2 0.1971 0.317706 0.250764
402 2 0.307974 0.318308 0.149698
404 4 0.313692 0.325923 0.184479
359 4 0.400235 0.242553 0.159317
102 2 0.433633 0.304524 0.162652
103 4 0.455405 0.33291 0.167193
899 4 0.454244 0.343606 0.204439
449 4 0.173807 0.340985 0.265457
897 2 0.487424 0.35416 0.213824
1500 2 0.0209847 0.462146 0.264761
1502 4 0.0464359 0.469634 0.240337
932 4 0.0656266 0.473578 0.162908
931 4 0.061318 0.498792 0.230343
930 2 0.063472 0.486185 0.196626
1142 4 0.142829 0.576612 0.177096
992 4 0.149727 0.557766 0.207171
990 2 0.185358 0.562527 0.210028
991 4 0.220989 0.567288 0.212886
682 4 0.073622 0.618591 0.209481
681 2 0.0583122 0.602373 0.237818
673 4 0.218475 0.610678 0.226868
672 2 0.248987 0.621842 0.242514
871 4 0.4478 0.632278 0.260259
137 4 0.0218072 0.709734 0.164613
718 4 0.253092 0.70612 0.141946
717 2 0.237639 0.703339 0.174409
719 4 0.222186 0.700557 0.206873
467 4 0.232799 0.70055 0.241995
465 2 0.248844 0.731827 0.250042
1339 4 0.362276 0.8434 0.164996
1338 2 0.335616 0.824508 0.180251
569 4 0.482513 0.837549 0.211369
888 2 0.12203 0.87186 0.179539
890 4 0.116339 0.883577 0.213165
1180 4 0.214748 0.864643 0.244957
856 4 0.197852 0.887236 0.222199
1179 2 0.226415 0.869435 0.27874
855 2 0.177487 0.916489 0.227664
1078 4 0.28365 0.819372 0.168074
1077 2 0.269853 0.851892 0.160823
1340 4 0.308955 0.805616 0.195505
189 2 0.395935 0.91934 0.260496
1186 4 0.466872 0.837824 0.177365
567 2 0.459895 0.851217 0.235905
190 4 0.408299 0.888014 0.273388
568 4 0.437277 0.864885 0.260442
114 2 0.109348 0.925654 0.262884
115 4 0.137219 0.948345 0.265838
857 4 0.157121 0.945743 0.23313
191 4 0.383571 0.950666 0.247604
251 4 0.389573 0.0525445 0.234921
1346 4 0.486374 0.926413 0.281947
988 4 0.127944 0.046836 0.252836
987 2 0.147142 0.0271411 0.276159
989 4 0.16634 0.00744662 0.299482
1345 4 0.484353 0.997636 0.270776
1259 4 0.142407 0.651384 0.478372
217 4 0.11225 0.211526 0.264593
761 4 0.0291935 0.29009 0.26325
759 2 0.0096506 0.267692 0.283666
1448 4 0.0408561 0.310203 0.294444
222 2 0.466488 0.265466 0.30149
224 4 0.439267 0.246062 0.287964
1446 2 0.0446756 0.341451 0.312034
1447 4 0.048495 0.372698 0.329624
329 4 0.20174 0.367772 0.258321
328 4 0.209177 0.403938 0.320276
327 2 0.205459 0.385855 0.289298
18 3 0.380881 0.368832 0.246536
20 3 0.356547 0.34944 0.291039
16 1 0.362399 0.376496 0.27336
17 3 0.333556 0.389357 0.263193
19 3 0.378339 0.399167 0.292118
231 2 0.0298533 0.491558 0.338986
233 4 0.013435 0.465946 0.319624
1487 4 0.0347827 0.225474 0.487326
1062 2 0.117625 0.506991 0.345754
254 4 0.353659 0.417433 0.277542
253 4 0.375277 0.484857 0.291263
252 2 0.364468 0.451145 0.284403
693 2 0.446159 0.495616 0.298426
695 4 0.410384 0.49449 0.294035
1503 2 0.018744 0.576094 0.303467
1505 4 0.0124711 0.544659 0.319985
1063 4 0.116967 0.525569 0.314853
826 4 0.132257 0.551279 0.33612
825 2 0.162664 0.570365 0.332723
679 4 0.270166 0.602942 0.3433
694 4 0.481934 0.496741 0.302818
683 4 0.0430026 0.586154 0.266154
1504 4 0.0250167 0.60753 0.286948
674 4 0.2795 0.633006 0.25816
1457 4 0.30388 0.610012 0.275651
484 4 0.280664 0.670805 0.278637
1455 2 0.333401 0.60385 0.255879
1456 4 0.362922 0.597689 0.236107
872 4 0.395323 0.586088 0.242532
164 4 0.47432 0.630875 0.235965
870 2 0.421562 0.609183 0.251395
1160 4 0.298049 0.76837 0.269038
483 2 0.269617 0.659922 0.311193
1158 2 0.326579 0.754306 0.286027
1159 4 0.355108 0.740241 0.303017
783 2 0.48596 0.753276 0.288839
784 4 0.458326 0.734404 0.302279
466 4 0.264888 0.763103 0.258088
98 4 0.414997 0.815814 0.33048
96 2 0.395918 0.790789 0.312869
700 4 0.469991 0.216639 0.0424361
116 4 0.0814781 0.902962 0.25993
93 2 0.0369352 0.898355 0.235759
95 4 0.0702553 0.907543 0.225475
1261 4 0.419538 0.893924 0.40279
748 4 0.259107 0.901208 0.297961
1181 4 0.238083 0.874228 0.312523
619 4 0.436594 0.828384 0.359605
618 2 0.438834 0.854363 0.334695
620 4 0.441073 0.880341 0.309786
29 3 0.291271 0.353913 0.496155
747 2 0.256768 0.933784 0.313249
1030 4 0.36422 0.976768 0.232417
1029 2 0.352875 0.98541 0.265538
1031 4 0.341529 0.994052 0.29866
1344 2 0.485363 0.962025 0.276361
1224 2 0.0432808 0.0512009 0.397152
1226 4 0.0100175 0.0478195 0.383642
1225 4 0.0765444 0.054582 0.410662
1135 4 0.262258 0.0432926 0.36379
1134 2 0.241225 0.0148225 0.356899
1105 4 0.310973 0.0748583 0.350961
1104 2 0.292967 0.0707311 0.381931
392 4 0.307287 0.0396678 0.337219
390 2 0.328164 0.0102984 0.338645
714 2 0.436939 0.0887364 0.366452
601 4 0.42834 0.0732353 0.428089
715 4 0.414598 0.07609 0.391777
510 2 0.0619871 0.168276 0.386216
512 4 0.0698373 0.135566 0.39921
716 4 0.459282 0.101383 0.341128
1449 2 0.0128806 0.225648 0.362037
517 4 0.308359 0.0216668 0.487014
1450 4 0.0358143 0.227651 0.389794
511 4 0.0541369 0.200986 0.373222
1116 2 0.171204 0.252951 0.407513
1117 4 0.18663 0.243744 0.376247
408 2 0.156096 0.281136 0.033179
963 2 0.239258 0.263438 0.368616
964 4 0.213093 0.241738 0.35658
965 4 0.265424 0.285138 0.380651
325 4 0.384714 0.325636 0.330862
324 2 0.365657 0.337514 0.359078
726 2 0.479274 0.324139 0.394428
727 4 0.468511 0.338191 0.425847
973 4 0.188941 0.389848 0.348858
974 4 0.219757 0.349123 0.399784
972 2 0.204349 0.369485 0.374321
326 4 0.346599 0.349392 0.387294
232 4 0.0462712 0.51717 0.358348
1251 2 0.14274 0.467077 0.414301
1064 4 0.118283 0.488414 0.376654
1252 4 0.153292 0.486065 0.385516
827 4 0.193071 0.589451 0.329327
873 2 0.491395 0.532212 0.392667
491 4 0.00442226 0.607407 0.363221
1122 2 0.0331287 0.618609 0.425657
362 4 0.0683288 0.666874 0.331242
1123 4 0.0122619 0.617217 0.39628
360 2 0.0929675 0.641588 0.323897
361 4 0.117606 0.616302 0.316553
680 4 0.208622 0.567101 0.354672
678 2 0.239394 0.585021 0.348986
829 4 0.0140159 0.755537 0.372799
828 2 0.0457657 0.742257 0.362029
830 4 0.0775144 0.728976 0.351258
736 4 0.0980811 0.725553 0.377199
485 4 0.25857 0.649038 0.34375
1101 2 0.289231 0.696087 0.386659
1103 4 0.271317 0.674416 0.364079
97 4 0.376838 0.765765 0.295258
185 4 0.159245 0.90383 0.452076
183 2 0.14951 0.890887 0.419856
184 4 0.139774 0.877944 0.387636
583 4 0.115936 0.885461 0.358496
584 4 0.0523006 0.898221 0.327042
1246 4 0.439748 0.292347 0.491727
582 2 0.0841182 0.891841 0.342769
749 4 0.254429 0.966361 0.328537
1136 4 0.220193 0.986352 0.350008
391 4 0.349041 0.980929 0.340071
474 2 0.361894 0.921362 0.376964
475 4 0.339709 0.944928 0.361061
476 4 0.384079 0.897795 0.392866
520 4 0.105464 0.0360711 0.394562
521 4 0.153769 0.0143094 0.443498
519 2 0.129616 0.02519 0.419029
43 3 0.157333 0.0298485 0.479551
728 4 0.490037 0.310086 0.36301
41 1 0.175659 0.00215878 0.475387
44 3 0.205449 0.010031 0.462328
148 4 0.497641 0.272646 0.352987
600 2 0.424289 0.0580849 0.460562
602 4 0.420238 0.0429347 0.493034
1106 4 0.274961 0.0666034 0.412901
61 4 0.485232 0.0766921 0.261381
1163 4 0.143862 0.822222 0.47139
1118 4 0.155777 0.262159 0.43878
1267 4 0.374302 0.221968 0.413834
1266 2 0.35549 0.246264 0.432709
1384 4 0.0342685 0.342207 0.454413
1000 4 0.163535 0.302274 0.483362
56 4 0.327127 0.277651 0.485874
1268 4 0.336678 0.270559 0.451583
1383 2 0.0682162 0.354204 0.452398
1001 4 0.100961 0.332687 0.464358
1385 4 0.102164 0.3662 0.450383
999 2 0.132248 0.31748 0.47386
549 2 0.305193 0.362679 0.43483
550 4 0.313506 0.349649 0.402249
551 4 0.296881 0.375709 0.467411
28 3 0.291374 0.407455 0.484423
1253 4 0.132189 0.448089 0.443085
1043 4 0.00499405 0.94538 0.0376893
960 2 0.455772 0.486568 0.461891
123 2 0.0181647 0.483373 0.445128
124 4 0.0461265 0.473798 0.465789
188 4 0.146238 0.581066 0.485069
1464 2 0.100895 0.499215 0.487321
909 2 0.253292 0.533954 0.481369
910 4 0.231298 0.562503 0.482643
911 4 0.275285 0.505404 0.480094
346 4 0.317737 0.594089 0.440645
874 4 0.460531 0.529786 0.411158
961 4 0.457328 0.497793 0.427657
187 4 0.0867315 0.591575 0.445696
1124 4 0.0539957 0.620001 0.455035
186 2 0.116485 0.586321 0.465382
737 4 0.0954574 0.707893 0.447076
1257 2 0.163071 0.65683 0.449325
345 2 0.315384 0.613668 0.410453
528 2 0.00250234 0.6185 0.00676388
347 4 0.31303 0.633247 0.380262
735 2 0.0967693 0.716723 0.412137
1258 4 0.183735 0.662276 0.420278
1102 4 0.307144 0.717758 0.40924
94 4 0.0036148 0.889166 0.246042
176 4 0.015029 0.864358 0.433543
174 2 0.0340336 0.856703 0.463218
175 4 0.0530384 0.849048 0.492894
1162 4 0.0860428 0.861933 0.488167
1161 2 0.114952 0.842077 0.479779
45 3 0.159936 0.981185 0.455595
1330 4 0.330829 0.00181972 0.47598
1329 2 0.336463 0.966833 0.482651
1331 4 0.342097 0.931845 0.489323
223 4 0.493708 0.284869 0.315018
896 4 0.386759 0.03655 0.497934
1285 4 0.462454 0.320786 0.496804
409 4 0.126915 0.293001 0.015625
948 2 0.318734 0.649491 0.514826
565 4 0.14206 0.0695836 0.5408
564 2 0.108954 0.0666736 0.526805
464 4 0.148969 0.04259 0.563191
462 2 0.182826 0.0387628 0.551382
463 4 0.216683 0.0349356 0.539572
518 4 0.243117 0.0142532 0.516848
42 3 0.180352 0.987856 0.504951
572 4 0.317985 0.0558777 0.559661
895 4 0.318601 0.0359106 0.521507
894 2 0.35268 0.0362306 0.50972
63 2 0.450871 0.0696506 0.57603
64 4 0.465219 0.0541905 0.605279
1483 4 0.49191 0.334427 0.890106
675 2 0.0296087 0.101681 0.507801
677 4 0.0650098 0.0948659 0.506968
802 4 0.156723 0.0984587 0.536792
801 2 0.153446 0.126384 0.559371
803 4 0.15017 0.154311 0.58195
1396 4 0.297512 0.139926 0.552222
570 2 0.296375 0.0839566 0.552951
571 4 0.274766 0.112036 0.546241
317 4 0.364713 0.109181 0.531203
315 2 0.384215 0.118283 0.560138
65 4 0.436523 0.0851103 0.54678
833 4 0.439062 0.157881 0.569365
791 4 0.489713 0.365299 0.915412
204 2 0.138545 0.20377 0.59437
206 4 0.151704 0.189395 0.564029
205 4 0.125386 0.218144 0.624712
1395 2 0.317751 0.169495 0.556281
1397 4 0.33799 0.199067 0.560341
959 4 0.308227 0.226189 0.566237
55 4 0.340237 0.235784 0.543116
394 4 0.344599 0.231866 0.583366
370 4 0.373641 0.218411 0.558323
369 2 0.39369 0.192293 0.573037
371 4 0.413733 0.166174 0.587752
831 2 0.473226 0.169171 0.571757
958 4 0.236931 0.236857 0.568172
957 2 0.272582 0.231524 0.567202
54 2 0.333679 0.256717 0.514496
1492 4 0.00257245 0.382311 0.593546
1284 2 0.48333 0.337652 0.52089
1485 2 0.0064785 0.219044 0.508726
30 3 0.262886 0.388714 0.526684
27 3 0.316674 0.38905 0.528689
670 4 0.288767 0.393631 0.550612
26 1 0.290299 0.384791 0.509021
878 4 0.0690419 0.0826631 0.931846
1245 2 0.409751 0.307387 0.504932
1247 4 0.379753 0.322427 0.518137
1498 4 0.44856 0.938225 0.929827
566 4 0.0758468 0.0637621 0.51281
142 4 0.361852 0.802197 0.998869
617 4 0.431176 0.455832 0.516964
1389 2 0.074129 0.777811 0.995567
743 4 0.0765494 0.90908 0.917204
1027 4 0.486631 0.566008 0.975443
1366 4 0.00242839 0.559177 0.518674
1390 4 0.0427956 0.791507 0.98412
215 4 0.277934 0.548934 0.593911
1040 4 0.409858 0.548516 0.614018
615 2 0.444574 0.475067 0.544366
616 4 0.457972 0.494302 0.571769
213 2 0.249495 0.567131 0.581242
867 2 0.0179103 0.744353 0.669925
836 4 0.208696 0.595403 0.601388
214 4 0.221057 0.585329 0.568574
1453 4 0.34124 0.637968 0.574663
367 4 0.425969 0.647782 0.517046
366 2 0.456162 0.663693 0.505399
928 4 0.063311 0.907566 0.952386
1154 4 0.317335 0.717258 0.520704
949 4 0.302854 0.681669 0.511237
1152 2 0.305441 0.730338 0.552134
1153 4 0.293547 0.743418 0.583564
927 2 0.0451109 0.91862 0.981488
1398 2 0.0781652 0.0690124 0.640042
1399 4 0.045702 0.081161 0.630095
1400 4 0.110629 0.0568637 0.649989
495 2 0.212059 0.0223133 0.636079
1418 4 0.324787 0.0045625 0.652444
1416 2 0.352339 0.999202 0.629804
1417 4 0.379891 0.99384 0.607165
200 4 0.365522 0.0672359 0.713042
154 4 0.0257829 0.0886405 0.655028
153 2 0.0105422 0.117687 0.640046
516 2 0.275738 0.0179592 0.50193
296 4 0.229415 0.125807 0.549563
881 4 0.181233 0.122722 0.601555
294 2 0.24268 0.159338 0.54925
879 2 0.20197 0.10292 0.623425
316 4 0.403718 0.127387 0.589073
1010 4 0.396761 0.147038 0.622279
1008 2 0.419973 0.161158 0.645991
295 4 0.255946 0.192869 0.548938
393 2 0.343395 0.235993 0.619173
395 4 0.342192 0.240117 0.654978
1009 4 0.443187 0.175278 0.669701
1377 2 0.0190066 0.280395 0.638979
1379 4 0.0473733 0.266579 0.656439
208 4 0.150551 0.313399 0.675892
733 4 0.493893 0.286556 0.670163
210 2 0.234639 0.954829 0.923495
385 4 0.0295601 0.466634 0.643451
305 4 0.120158 0.421179 0.623693
669 2 0.287904 0.401259 0.585847
671 4 0.287042 0.408886 0.621081
304 4 0.0529167 0.402599 0.605391
303 2 0.0865373 0.41189 0.614543
460 4 0.193567 0.508661 0.705568
1039 4 0.389746 0.484555 0.640591
337 4 0.414031 0.457258 0.647016
1038 2 0.399802 0.516536 0.627305
634 4 0.0429839 0.641078 0.603932
633 2 0.00733581 0.646159 0.605881
331 4 0.131215 0.667776 0.601867
330 2 0.0955113 0.669017 0.596952
835 4 0.160947 0.647527 0.587074
834 2 0.184822 0.621465 0.594231
1452 2 0.369921 0.64434 0.595573
332 4 0.0598083 0.670257 0.592036
1204 4 0.208861 0.721484 0.644985
1454 4 0.398602 0.650712 0.616483
1051 4 0.431878 0.646864 0.629596
1052 4 0.471453 0.70057 0.602188
1050 2 0.451665 0.673717 0.615892
1203 2 0.188309 0.750403 0.651449
1413 2 0.443739 0.790234 0.612697
1415 4 0.44798 0.75555 0.603784
1404 2 0.329877 0.81646 0.639684
1405 4 0.32877 0.82773 0.605447
1414 4 0.439499 0.824918 0.621612
427 4 0.0767344 0.839945 0.568353
426 2 0.078877 0.868545 0.590212
428 4 0.0810195 0.897145 0.612072
643 4 0.397258 0.926331 0.597791
642 2 0.431389 0.933211 0.588405
703 4 0.450853 0.866842 0.958036
497 4 0.187971 0.0129188 0.661217
110 4 0.497539 0.934511 0.564265
644 4 0.465521 0.940091 0.579018
1301 4 0.373627 0.00229534 0.685167
488 4 0.147498 0.0510232 0.649476
1212 2 0.248657 0.0706028 0.712987
496 4 0.236146 0.0317078 0.61094
1213 4 0.255737 0.0750771 0.748062
198 2 0.356031 0.0828944 0.681976
199 4 0.34654 0.0985532 0.650909
1300 4 0.432559 0.0328833 0.713328
1299 2 0.403093 0.0175891 0.699247
486 2 0.148861 0.0712447 0.679302
487 4 0.150225 0.0914663 0.709129
880 4 0.222708 0.0831186 0.645295
1214 4 0.241578 0.0661287 0.677911
1293 2 0.449679 0.24476 0.670016
1295 4 0.441604 0.209811 0.6663
84 2 0.0398512 0.30261 0.74997
86 4 0.0598489 0.279153 0.731255
1294 4 0.457754 0.279708 0.673732
924 2 0.44188 0.300559 0.726459
926 4 0.459842 0.27465 0.708951
1199 4 0.0362865 0.457195 0.67771
209 4 0.19286 0.349588 0.630045
207 2 0.171706 0.331493 0.652969
709 4 0.324826 0.376242 0.7862
1197 2 0.0503612 0.43533 0.702695
1198 4 0.0644355 0.413465 0.727679
775 4 0.339358 0.499067 0.763898
774 2 0.312244 0.50097 0.740199
336 2 0.447388 0.45163 0.659508
338 4 0.480745 0.446002 0.672001
1237 4 0.471918 0.460086 0.772915
459 2 0.181393 0.521067 0.673973
461 4 0.16922 0.533473 0.642377
1291 4 0.275294 0.538359 0.721078
1290 2 0.252207 0.564172 0.711024
776 4 0.28513 0.502873 0.7165
1292 4 0.22912 0.589985 0.700971
1324 4 0.04544 0.776381 0.660744
869 4 0.0538518 0.741652 0.668778
307 4 0.343955 0.716384 0.710894
1323 2 0.0543287 0.811216 0.663553
1325 4 0.0632174 0.846051 0.666363
1205 4 0.167757 0.77932 0.657913
563 4 0.2363 0.780061 0.704636
561 2 0.220368 0.811949 0.699186
562 4 0.204436 0.843838 0.693735
1469 4 0.266882 0.773083 0.722675
1406 4 0.330984 0.805189 0.673921
308 4 0.309288 0.773813 0.684403
306 2 0.326621 0.745098 0.697649
1013 4 0.0117127 0.884319 0.767373
1341 2 0.144966 0.838555 0.686146
1343 4 0.140539 0.87107 0.701098
655 4 0.132752 0.864003 0.74114
1342 4 0.149394 0.80604 0.671195
939 2 0.228806 0.920397 0.693251
940 4 0.236988 0.906303 0.661083
941 4 0.220624 0.934493 0.725419
5 3 0.212741 0.969463 0.734373
1 1 0.207787 0.952834 0.762262
259 4 0.490444 0.931904 0.666232
534 2 0.291324 0.0510864 0.814597
536 4 0.300203 0.0451094 0.780161
1289 4 0.353956 0.114973 0.750465
1287 2 0.333222 0.126169 0.777763
344 4 0.334612 0.14843 0.832825
1288 4 0.312489 0.137364 0.805061
388 4 0.00203566 0.201098 0.797705
387 2 0.0364562 0.211757 0.796275
649 4 0.160395 0.0462212 0.9761
662 4 0.103203 0.206091 0.789911
389 4 0.0708764 0.222416 0.794844
660 2 0.131488 0.220483 0.772786
661 4 0.159773 0.234875 0.755662
1082 4 0.360651 0.196009 0.803597
1080 2 0.376349 0.227309 0.812214
1515 2 0.0697741 0.36404 0.792941
1517 4 0.0370443 0.359581 0.778474
85 4 0.0198537 0.326067 0.768686
1081 4 0.392048 0.25861 0.82083
925 4 0.423917 0.326467 0.743967
1093 4 0.0968803 0.42155 0.793624
1092 2 0.12722 0.437366 0.782234
710 4 0.268688 0.413759 0.81155
708 2 0.296757 0.395001 0.798875
1094 4 0.157561 0.453182 0.770843
1033 4 0.377066 0.463804 0.806931
1032 2 0.369022 0.498259 0.813899
1236 2 0.441913 0.461127 0.792891
1238 4 0.411909 0.462169 0.812868
532 4 0.351278 0.566137 0.79991
1034 4 0.360976 0.532707 0.820869
1433 4 0.384251 0.565883 0.823661
1431 2 0.399828 0.589357 0.801155
531 2 0.320278 0.580538 0.811389
533 4 0.289274 0.594943 0.822864
1424 4 0.396694 0.656976 0.790151
1432 4 0.41541 0.612833 0.77865
1467 2 0.254643 0.754713 0.751191
1468 4 0.242403 0.736344 0.779706
1460 4 0.243086 0.705898 0.793417
1422 2 0.365642 0.658062 0.808454
654 2 0.146024 0.892889 0.758166
656 4 0.159296 0.921775 0.775192
916 4 0.0558005 0.945763 0.78406
915 2 0.0362262 0.932205 0.811142
2 3 0.176522 0.957471 0.772343
4 3 0.212754 0.920145 0.7571
3 3 0.228574 0.963937 0.786021
152 4 0.256904 0.946953 0.790619
150 2 0.263221 0.971395 0.81637
170 4 0.31646 0.00169607 0.79623
168 2 0.342686 0.98049 0.808994
1023 2 0.482722 0.966577 0.821989
1025 4 0.45364 0.982336 0.836354
651 2 0.0906655 0.997198 0.909877
652 4 0.0643289 0.0188312 0.898095
36 1 0.257382 0.0216009 0.888607
39 3 0.231602 0.0257732 0.909532
40 3 0.251346 0.0369258 0.860189
535 4 0.282446 0.0570631 0.849034
37 3 0.28462 0.0345472 0.902432
38 3 0.262488 0.988984 0.883129
530 4 0.028282 0.604812 0.985587
1302 2 0.473977 0.0337299 0.909022
342 2 0.341145 0.153596 0.867911
614 4 0.382588 0.158216 0.915504
504 2 0.15671 0.187707 0.905119
1402 4 0.101922 0.210117 0.896643
506 4 0.121318 0.186032 0.911819
505 4 0.192105 0.189384 0.898418
1202 4 0.193837 0.225893 0.892671
1200 2 0.221038 0.221264 0.915891
343 4 0.347679 0.158762 0.902997
1516 4 0.102504 0.368499 0.807409
1403 4 0.073775 0.27222 0.920149
1401 2 0.0878487 0.241169 0.908396
477 2 0.229383 0.32163 0.881794
479 4 0.265428 0.321388 0.882851
1201 4 0.248237 0.216634 0.93911
478 4 0.193338 0.321871 0.880736
1481 4 0.29457 0.2316 0.899478
1479 2 0.310911 0.261747 0.910637
1315 4 0.109953 0.372642 0.893507
807 2 0.167587 0.370566 0.897702
809 4 0.137932 0.390993 0.899647
808 4 0.197241 0.350141 0.895757
46 1 0.340349 0.398597 0.905386
48 3 0.319958 0.422094 0.893057
47 3 0.333976 0.369811 0.890174
50 3 0.371648 0.406978 0.900009
947 4 0.170379 0.462822 0.889048
1084 4 0.155119 0.475064 0.919344
946 4 0.234575 0.493578 0.900648
945 2 0.202477 0.4782 0.894848
1053 2 0.340347 0.47813 0.893584
1055 4 0.333734 0.512195 0.883773
1054 4 0.346961 0.444065 0.903395
146 4 0.433013 0.473887 0.946353
1129 4 0.433177 0.490445 0.913369
1265 4 0.0474127 0.626255 0.887222
106 4 0.114888 0.633117 0.895298
105 2 0.137098 0.637658 0.923342
107 4 0.159309 0.642198 0.951386
1459 4 0.30903 0.681095 0.808841
1423 4 0.33459 0.659147 0.826757
1458 2 0.276058 0.693497 0.801128
811 4 0.292059 0.901133 0.840543
81 2 0.326793 0.835345 0.868539
1220 4 0.352094 0.795243 0.908308
83 4 0.322376 0.819052 0.900405
1218 2 0.387652 0.789904 0.905561
1219 4 0.42321 0.784565 0.902814
812 4 0.220354 0.893958 0.843463
810 2 0.256207 0.897546 0.842003
82 4 0.331209 0.851638 0.836673
702 2 0.434776 0.893915 0.940459
704 4 0.418699 0.92099 0.922883
917 4 0.016652 0.918646 0.838224
742 4 0.0356288 0.935502 0.864016
741 2 0.0560891 0.922291 0.89061
212 4 0.237341 0.98787 0.909302
151 4 0.269539 0.995835 0.842122
179 4 0.399663 0.956353 0.837678
169 4 0.368911 0.959284 0.821759
177 2 0.399894 0.959156 0.873629
178 4 0.400124 0.961958 0.90958
632 4 0.0178183 0.184121 0.971084
653 4 0.117002 0.975566 0.921659
650 4 0.217972 0.0679689 0.938504
648 2 0.189183 0.057095 0.957302
1192 4 0.266623 0.0370755 0.935748
1049 4 0.412854 0.0559132 0.932272
1048 4 0.344231 0.0654613 0.952309
1047 2 0.378542 0.0606875 0.94229
1304 4 0.439645 0.0408519 0.900595
1355 4 0.0858415 0.0995223 0.95865
1353 2 0.0987738 0.127795 0.940379
1191 2 0.295489 0.0380214 0.957342
1193 4 0.324354 0.0389679 0.978936
613 4 0.408127 0.152187 0.982684
612 2 0.395358 0.155202 0.949094
1354 4 0.111706 0.156068 0.922109
1499 4 0.459289 0.000557008 0.964485
1011 2 0.000130541 0.875975 0.734257
876 2 0.0349322 0.0726839 0.937957
877 4 0.000822258 0.0627052 0.944069
1497 2 0.453925 0.969391 0.947156
1480 4 0.327252 0.291895 0.921795
1314 2 0.0990481 0.405644 0.903119
1143 2 0.309061 0.327481 0.968907
1145 4 0.302693 0.311559 0.937184
49 3 0.334994 0.394904 0.938213
145 4 0.396616 0.429272 0.902922
1316 4 0.0881429 0.438645 0.912729
1083 2 0.132206 0.502203 0.925579
144 2 0.414814 0.451579 0.924638
141 2 0.382011 0.830431 0.989026
143 4 0.402169 0.858665 0.979183
312 2 0.0790219 0.552803 0.975708
313 4 0.103281 0.559667 0.949925
1085 4 0.109294 0.529343 0.931815
1130 4 0.475585 0.521972 0.864285
1026 2 0.481702 0.530668 0.980658
1128 2 0.454381 0.506209 0.888827
1028 4 0.476774 0.495328 0.985872
1264 4 0.054247 0.668016 0.945625
1037 4 0.256333 0.643808 0.966945
211 4 0.231937 0.921789 0.937688
1035 2 0.22159 0.653229 0.964803
1036 4 0.186848 0.66265 0.962661
1263 2 0.0508298 0.647135 0.916424
922 4 0.0173925 0.815902 0.976932
509 4 0.464679 0.582405 0.999872
292 4 0.27303 0.633493 0.998923
1466 4 0.13248 0.489471 0.501738
950 4 0.334614 0.617314 0.518416
1133 4 0.734572 0.0425538 0.0483272
1131 2 0.718996 0.0749835 0.0458533
1007 4 0.723482 0.040485 0.0844812
80 4 0.841398 0.0943199 0.0957309
400 4 0.577258 0.0934238 0.0105458
399 2 0.611765 0.0989874 0.00167426
1489 4 0.888843 0.143929 0.0889873
353 4 0.908382 0.135679 0.0543204
351 2 0.89298 0.15455 0.0277307
575 4 0.915113 0.170825 0.0735873
631 4 0.994765 0.198583 0.0378751
1451 4 0.989947 0.223646 0.33428
1227 2 0.681352 0.19304 0.496992
573 2 0.950601 0.177119 0.0725852
574 4 0.986093 0.183421 0.071583
1501 4 0.995534 0.454657 0.289185
1429 4 0.897972 0.330415 0.0443971
1428 2 0.879662 0.352336 0.022382
592 4 0.900874 0.745008 0.0129971
590 4 0.904766 0.326171 0.0783836
1146 2 0.969161 0.420733 0.0392874
862 4 0.550284 0.451566 0.050754
861 2 0.579656 0.434548 0.062921
815 4 0.999495 0.889641 0.282821
814 4 0.998472 0.925094 0.34562
1337 4 0.839515 0.486638 0.0962038
1147 4 0.958405 0.439556 0.0680946
419 4 0.939278 0.466476 0.0929933
608 4 0.696633 0.597217 0.0465902
220 4 0.713833 0.59924 0.0783496
606 2 0.690018 0.597572 0.0111427
219 2 0.743073 0.620025 0.0820057
235 4 0.80145 0.633579 0.063862
221 4 0.772314 0.640811 0.0856615
234 2 0.834313 0.627322 0.0503985
236 4 0.867176 0.621064 0.0369351
333 2 0.507516 0.66439 0.112438
529 4 0.976723 0.632189 0.0279406
302 4 0.512859 0.719166 0.0241767
472 4 0.909767 0.700346 0.0654287
320 4 0.877328 0.71577 0.0576455
1090 4 0.550846 0.868267 0.122462
418 4 0.982439 0.524253 0.0933817
622 4 0.723362 0.884295 0.0144302
1132 4 0.70342 0.107413 0.0433795
623 4 0.755348 0.908576 0.0743386
621 2 0.739355 0.896435 0.0443846
1442 4 0.871292 0.929587 0.120505
923 4 0.966265 0.841128 0.0211051
66 2 0.998029 0.387333 0.159636
1042 4 0.991924 0.960025 0.10709
352 4 0.877581 0.173415 0.00113446
1041 2 0.998459 0.952703 0.0723894
1005 2 0.706094 0.0342159 0.115445
1006 4 0.688706 0.0279467 0.146409
78 2 0.850653 0.0594938 0.0971051
79 4 0.859909 0.0246676 0.09848
933 2 0.713999 0.132752 0.154522
935 4 0.72143 0.146792 0.122148
1490 4 0.822139 0.152784 0.114921
1488 2 0.855494 0.148358 0.101951
637 4 0.54338 0.233539 0.134426
934 4 0.706568 0.118711 0.186896
636 2 0.535722 0.259292 0.110374
638 4 0.528065 0.285046 0.0863216
738 2 0.707962 0.302238 0.140142
740 4 0.707558 0.271175 0.12183
739 4 0.708365 0.3333 0.158455
364 4 0.563843 0.432139 0.177934
589 4 0.86198 0.371441 0.114737
588 2 0.883373 0.348806 0.0965602
194 4 0.544522 0.144281 0.0145651
659 4 0.886672 0.377443 0.145153
863 4 0.609029 0.417529 0.075088
1223 4 0.694621 0.463977 0.159523
1231 4 0.810194 0.477118 0.116222
1230 2 0.785395 0.479793 0.0901786
1232 4 0.760596 0.482469 0.0641351