ITEM: TIMESTEP
1671500
ITEM: NUMBER OF ATOMS
1520
ITEM: BOX BOUNDS pp pp pp
-6.9326749999999997e+00 6.9326749999999997e+00
-6.9326749999999997e+00 6.9326749999999997e+00
-6.9326749999999997e+00 6.9326749999999997e+00
ITEM: ATOMS id type xs ys zs
964 4 0.498985 0.149232 0.423694
44 3 0.0224154 0.0358427 0.0697868
41 1 0.0158681 0.00309731 0.0719765
652 4 0.0526587 0.0624668 0.999262
138 2 0.100176 0.0391529 0.0126456
133 4 0.303133 0.046727 0.0570326
132 2 0.288885 0.0199067 0.0375869
8 3 0.397959 0.108085 0.0214947
7 3 0.418258 0.141518 0.0590266
9 3 0.42875 0.150947 0.00668687
6 1 0.424222 0.127115 0.0297405
10 3 0.451211 0.108547 0.0321143
1226 4 0.0356269 0.197929 0.0250443
1224 2 0.0621581 0.213322 0.00608111
1092 2 0.140373 0.240801 0.0231334
1094 4 0.120219 0.21844 0.003279
302 4 0.214474 0.22108 0.0589553
961 4 0.208487 0.22599 0.0218903
300 2 0.197378 0.223004 0.090649
960 2 0.237681 0.207566 0.0114644
962 4 0.266875 0.189142 0.00103905
872 4 0.363018 0.216629 0.0398353
870 2 0.332255 0.219422 0.0584428
1477 4 0.394243 0.221834 0.05779
1476 2 0.415448 0.22707 0.0290949
1478 4 0.436653 0.232307 0.000402119
127 4 0.493967 0.238712 0.0415734
1093 4 0.160528 0.263162 0.0429869
55 4 0.0112685 0.0687177 0.294767
136 4 0.365632 0.337846 0.0145629
135 2 0.386877 0.362536 0.0300365
137 4 0.408122 0.387226 0.0455105
154 4 0.0506483 0.423827 0.0326163
229 4 0.0631714 0.451675 0.00903008
153 2 0.0856344 0.4191 0.0399685
155 4 0.120621 0.414375 0.047321
841 4 0.121362 0.429632 0.0767202
2 3 0.495711 0.581824 0.0845545
838 4 0.47698 0.415778 0.0467592
518 4 0.485629 0.434139 0.0773848
408 2 0.198225 0.582579 0.0814424
409 4 0.230283 0.566943 0.0761375
1455 2 0.243969 0.528014 0.0240622
1456 4 0.249118 0.552227 0.0502851
1103 4 0.364215 0.547887 0.0240049
1101 2 0.391171 0.557852 0.0457876
1102 4 0.418127 0.567816 0.0675707
410 4 0.166165 0.598216 0.0867482
615 2 0.353637 0.653311 0.0563447
617 4 0.355487 0.62583 0.0796202
710 4 0.490092 0.61115 0.0404515
709 4 0.426502 0.613745 0.0743805
708 2 0.458297 0.612447 0.0574159
1194 2 0.0509619 0.731804 0.0518811
1195 4 0.0667359 0.738385 0.0201283
1426 4 0.263016 0.699791 0.0588737
1425 2 0.284575 0.696755 0.0301263
1249 4 0.339489 0.691229 0.00291169
1427 4 0.306132 0.693718 0.00137883
616 4 0.351787 0.680793 0.0330689
261 2 0.497012 0.714256 0.0841561
986 4 0.163298 0.808667 0.492827
129 2 0.355427 0.761915 0.00908329
131 4 0.376516 0.778048 0.0334843
599 4 0.404797 0.7936 0.049145
597 2 0.432089 0.780408 0.0686768
598 4 0.459381 0.767216 0.0882085
1052 4 0.0694997 0.897753 0.0970545
1027 4 0.15655 0.902932 0.0825151
602 4 0.275028 0.86415 0.992472
1513 4 0.263533 0.86924 0.047574
747 2 0.117733 0.731111 0.398292
969 2 0.384234 0.880379 0.0142608
970 4 0.411723 0.879034 0.0375623
45 3 0.0370241 0.986172 0.0534089
524 4 0.137014 0.978277 0.00790622
139 4 0.113933 0.00958702 0.0280403
134 4 0.274639 0.993088 0.018142
313 4 0.296821 0.98317 0.0819763
314 4 0.35668 0.943292 0.0872886
312 2 0.326751 0.963232 0.0846325
457 4 0.252331 0.814003 0.463629
371 4 0.47242 0.930656 0.056843
42 3 0.0190746 0.993611 0.103606
1414 4 0.280241 0.0497655 0.0848753
1415 4 0.26804 0.0695516 0.153148
1413 2 0.27414 0.0596571 0.119012
753 2 0.398352 0.0321976 0.168774
755 4 0.385371 0.0390795 0.201707
754 4 0.411334 0.0253159 0.135843
579 2 0.123229 0.169529 0.143203
581 4 0.112579 0.143151 0.12104
301 4 0.180283 0.224927 0.122343
871 4 0.301492 0.222215 0.07705
400 4 0.259366 0.289834 0.132762
399 2 0.254402 0.269466 0.162103
840 2 0.124621 0.463123 0.0896857
842 4 0.12788 0.496614 0.102652
928 4 0.134138 0.493925 0.139679
479 4 0.225927 0.446778 0.120198
477 2 0.192775 0.458745 0.127824
478 4 0.159624 0.470712 0.13545
516 2 0.476612 0.45685 0.103905
517 4 0.467596 0.479561 0.130425
929 4 0.106465 0.558306 0.156734
927 2 0.120302 0.526116 0.148207
461 4 0.0794682 0.672002 0.122411
1183 4 0.148092 0.627507 0.103219
1182 2 0.138168 0.60802 0.131893
1184 4 0.128245 0.588533 0.160567
1196 4 0.0351877 0.72522 0.0836347
459 2 0.0476415 0.68308 0.109578
460 4 0.0158139 0.694159 0.0967448
226 4 0.0971951 0.69873 0.104308
225 2 0.131848 0.693639 0.0957224
227 4 0.1665 0.688549 0.0871367
263 4 0.472071 0.735822 0.0987624
712 4 0.0190089 0.753018 0.0958007
713 4 0.02555 0.76744 0.166163
711 2 0.0222795 0.760229 0.130981
1357 4 0.495401 0.836859 0.121774
1138 4 0.0126289 0.896349 0.156466
1026 2 0.121559 0.899808 0.0743734
1028 4 0.0865686 0.896685 0.0662308
500 4 0.169545 0.923738 0.112328
1514 4 0.248843 0.913767 0.102376
1512 2 0.256188 0.891504 0.074975
179 4 0.251236 0.886915 0.246873
1355 4 0.419932 0.830779 0.120757
1353 2 0.409442 0.864836 0.115249
1354 4 0.398951 0.898897 0.109743
370 4 0.426423 0.924561 0.112058
1356 2 0.476391 0.85271 0.148
1358 4 0.457379 0.868561 0.174225
1051 4 0.0156407 0.945308 0.103326
1050 2 0.0425705 0.921531 0.10019
985 4 0.144622 0.843818 0.432682
789 2 0.0136293 0.985866 0.148806
499 4 0.222595 0.97035 0.126984
498 2 0.19607 0.947043 0.119656
369 2 0.449421 0.927608 0.0844506
1315 4 0.0993704 0.0380775 0.254029
1314 2 0.0993604 0.056644 0.223115
151 4 0.174655 0.0646236 0.233067
206 4 0.190354 0.0358468 0.236415
1316 4 0.0993495 0.0752099 0.1922
360 2 0.0568219 0.253271 0.224656
539 4 0.0226694 0.191539 0.233072
362 4 0.0440602 0.221867 0.23696
580 4 0.133879 0.195908 0.165365
82 4 0.158273 0.209131 0.18871
401 4 0.249437 0.249099 0.191445
81 2 0.189416 0.220486 0.202908
83 4 0.220561 0.23184 0.217105
1064 4 0.458333 0.245017 0.210249
361 4 0.0695831 0.284674 0.212353
419 4 0.0786788 0.31437 0.189672
417 2 0.0824564 0.34578 0.206975
1062 2 0.465353 0.277654 0.223884
1063 4 0.472373 0.310292 0.237519
1348 4 0.475932 0.340226 0.222887
418 4 0.0862342 0.37719 0.224282
1347 2 0.498221 0.351066 0.249082
1302 2 0.15516 0.474369 0.198323
1303 4 0.136648 0.483621 0.227854
1304 4 0.173672 0.465117 0.168791
997 4 0.0105741 0.526821 0.217827
996 2 0.0448919 0.526754 0.206751
998 4 0.0792093 0.526686 0.195674
497 4 0.180771 0.563624 0.267722
987 2 0.479284 0.562967 0.194523
495 2 0.176046 0.597408 0.256029
989 4 0.451515 0.585095 0.200829
90 2 0.313497 0.681552 0.188877
91 4 0.287564 0.667841 0.209852
92 4 0.33943 0.695262 0.167903
1275 2 0.387108 0.689954 0.226414
1276 4 0.358761 0.694967 0.204695
1277 4 0.415456 0.68494 0.248132
1077 2 0.0407241 0.791493 0.230033
1079 4 0.0562812 0.775359 0.201782
178 4 0.227781 0.918124 0.18623
177 2 0.239508 0.90252 0.216551
1458 2 0.487612 0.903708 0.21503
1460 4 0.484151 0.890729 0.181563
790 4 0.0351805 0.99191 0.177081
205 4 0.161381 0.97148 0.221611
204 2 0.175867 0.00366354 0.229013
1459 4 0.491074 0.916686 0.248496
54 2 0.0107027 0.0818461 0.32835
150 2 0.190604 0.0678204 0.265251
152 4 0.206554 0.0710172 0.297435
807 2 0.2416 0.0505734 0.336699
808 4 0.219966 0.0384068 0.310539
353 4 0.317894 0.015233 0.32434
238 4 0.466534 0.0335173 0.312047
1055 4 0.44365 0.0174416 0.340069
1221 2 0.154581 0.151866 0.280277
1222 4 0.123754 0.157912 0.262569
334 4 0.109601 0.172561 0.290422
1223 4 0.185408 0.145819 0.297984
36 1 0.21552 0.118576 0.314179
39 3 0.219924 0.150651 0.305709
37 3 0.231942 0.0994377 0.292622
40 3 0.183572 0.111012 0.313206
232 4 0.327434 0.13858 0.326106
542 4 0.363707 0.1369 0.32368
540 2 0.393532 0.128416 0.305272
541 4 0.423358 0.119931 0.286862
237 2 0.460621 0.0669728 0.299957
239 4 0.454708 0.100428 0.287867
333 2 0.0903939 0.203061 0.289317
335 4 0.071187 0.233562 0.288213
1219 4 0.361442 0.243288 0.318479
628 4 0.434655 0.255714 0.302472
66 2 0.0697183 0.283968 0.296254
67 4 0.062726 0.263295 0.267546
68 4 0.0767111 0.30464 0.324962
1110 2 0.184207 0.297704 0.327682
1111 4 0.206182 0.28527 0.301935
1218 2 0.32875 0.258506 0.318467
1220 4 0.296056 0.273723 0.318455
685 4 0.315347 0.318049 0.274937
629 4 0.486087 0.306262 0.303564
627 2 0.460372 0.280988 0.303018
1420 4 0.444599 0.310706 0.256308
984 2 0.153959 0.826242 0.462754
481 4 0.087289 0.413256 0.340131
506 4 0.0169247 0.427233 0.294397
1412 4 0.0982442 0.379066 0.260208
1411 4 0.0892029 0.333787 0.315613
1410 2 0.0937241 0.356426 0.28791
1421 4 0.400548 0.364588 0.275223
686 4 0.375976 0.35228 0.293751
684 2 0.345662 0.335165 0.284344
1419 2 0.422573 0.337647 0.265766
480 2 0.0776365 0.437502 0.315243
482 4 0.067984 0.461747 0.290355
422 4 0.353877 0.486011 0.273948
420 2 0.387189 0.472265 0.27261
421 4 0.4205 0.458519 0.271273
437 4 0.22788 0.492144 0.344765
435 2 0.241425 0.520116 0.326476
436 4 0.254969 0.548089 0.308186
1066 4 0.272467 0.519005 0.29581
1065 2 0.30251 0.514208 0.27645
1067 4 0.332554 0.509411 0.257091
496 4 0.171321 0.631192 0.244335
507 2 0.116528 0.640118 0.280926
509 4 0.150192 0.628709 0.274846
508 4 0.0828631 0.651526 0.287005
761 4 0.014508 0.675741 0.29124
738 2 0.269395 0.740522 0.262497
739 4 0.236153 0.743981 0.248953
1188 2 0.441088 0.677466 0.300664
1190 4 0.44492 0.659894 0.269408
1189 4 0.437256 0.695038 0.331921
1344 2 0.0457192 0.795035 0.331901
1345 4 0.062834 0.78789 0.300975
1078 4 0.0251665 0.807626 0.258284
740 4 0.302636 0.737062 0.276041
405 2 0.421059 0.8099 0.315791
407 4 0.436839 0.788685 0.29127
197 4 0.0101324 0.883096 0.448882
1309 4 0.367881 0.00102016 0.488069
809 4 0.263234 0.0627408 0.362859
284 4 0.367505 0.0754737 0.410317
1053 2 0.474761 0.999446 0.342995
56 4 0.0101374 0.0949738 0.361931
38 3 0.227617 0.113109 0.344897
494 4 0.245641 0.0975058 0.364969
492 2 0.231867 0.120133 0.389439
231 2 0.320846 0.103273 0.32933
233 4 0.314258 0.0679653 0.332553
282 2 0.380154 0.0893885 0.379546
283 4 0.392803 0.103302 0.348776
1319 4 0.334487 0.217458 0.380975
1317 2 0.307072 0.207527 0.402195
1384 4 0.00179778 0.315452 0.418763
1112 4 0.162231 0.310138 0.353429
903 2 0.255978 0.310822 0.367463
904 4 0.265824 0.276595 0.361811
58 4 0.0310054 0.374658 0.374721
59 4 0.0909576 0.371405 0.33476
57 2 0.0609815 0.373032 0.354741
905 4 0.246132 0.34505 0.373115
1270 4 0.346565 0.404088 0.363292
1269 2 0.378985 0.414628 0.37505
1271 4 0.411405 0.425169 0.386808
1278 2 0.464591 0.448111 0.37812
1279 4 0.437494 0.446654 0.40187
1280 4 0.491688 0.449567 0.354371
1408 4 0.145357 0.561032 0.403589
1407 2 0.158304 0.527482 0.400917
1409 4 0.171253 0.493931 0.398245
164 4 0.327132 0.560171 0.392793
544 4 0.104369 0.591889 0.374254
543 2 0.123018 0.618567 0.389774
545 4 0.141667 0.645247 0.405294
305 4 0.136504 0.673296 0.431493
716 4 0.256467 0.755442 0.298174
865 4 0.411695 0.722373 0.342472
864 2 0.429796 0.712069 0.371911
866 4 0.447896 0.701764 0.401349
860 4 0.462471 0.717288 0.431174
858 2 0.480076 0.748435 0.426663
1346 4 0.0286044 0.80218 0.362828
748 4 0.112621 0.749728 0.367834
714 2 0.245435 0.774341 0.326837
715 4 0.234403 0.79324 0.3555
145 4 0.209567 0.809999 0.397993
144 2 0.238695 0.819216 0.417151
406 4 0.405279 0.831116 0.340312
859 4 0.49768 0.779582 0.422153
688 4 0.40422 0.88059 0.359082
743 4 0.373181 0.899347 0.359478
687 2 0.422105 0.898715 0.384616
1254 2 0.49939 0.922871 0.370353
351 2 0.317543 0.99977 0.356916
352 4 0.317192 0.984307 0.389492
742 4 0.335428 0.959524 0.371935
741 2 0.354304 0.929436 0.365706
1038 2 0.429442 0.836162 0.499458
689 4 0.43999 0.916841 0.410151
1256 4 0.46936 0.930041 0.388988
1340 4 0.398352 0.0600226 0.431751
1338 2 0.373349 0.0424907 0.450933
1339 4 0.348346 0.0249603 0.470114
493 4 0.218094 0.142758 0.413909
1286 4 0.223183 0.124333 0.451129
1146 2 0.164095 0.133084 0.475422
1148 4 0.16488 0.121894 0.44115
1040 4 0.42348 0.833321 0.464006
1284 2 0.24074 0.0992766 0.470217
281 4 0.385472 0.0978565 0.439049
279 2 0.411836 0.110211 0.460328
456 2 0.259306 0.836646 0.490814
963 2 0.464596 0.157648 0.430537
280 4 0.4382 0.122565 0.481606
1318 4 0.279658 0.197596 0.423414
99 2 0.40353 0.207846 0.479005
148 4 0.387004 0.248551 0.500045
965 4 0.430205 0.166067 0.437381
100 4 0.42947 0.206578 0.453986
147 2 0.370711 0.278132 0.487412
149 4 0.354421 0.307717 0.474774
587 4 0.367718 0.375839 0.462002
585 2 0.341741 0.40034 0.456971
1272 2 0.19812 0.480093 0.457506
1273 4 0.220942 0.484856 0.485016
586 4 0.315764 0.424841 0.45194
441 2 0.386301 0.497826 0.45875
442 4 0.381399 0.462718 0.452133
1312 4 0.117607 0.617109 0.463572
1274 4 0.175297 0.475329 0.429995
443 4 0.391203 0.532935 0.465367
163 4 0.358158 0.545633 0.456257
162 2 0.342646 0.552902 0.424524
1313 4 0.0456466 0.621792 0.462354
1311 2 0.0816263 0.619451 0.462963
304 4 0.180892 0.646465 0.481606
303 2 0.158699 0.65988 0.45655
146 4 0.267823 0.828432 0.43631
882 2 0.21384 0.608551 0.497623
884 4 0.245062 0.593055 0.488379
749 4 0.122845 0.712496 0.428751
1285 4 0.258298 0.0742206 0.489305
235 4 0.283013 0.587655 0.48767
732 2 0.493934 0.575563 0.993859
576 2 0.0333331 0.216217 0.551458
577 4 0.0597342 0.23843 0.561945
310 4 0.0836159 0.228499 0.537832
309 2 0.106964 0.206624 0.521195
311 4 0.130311 0.184749 0.504558
1509 2 0.181977 0.22577 0.543448
1511 4 0.203416 0.200628 0.529003
822 2 0.355668 0.233195 0.566241
824 4 0.375497 0.233909 0.536138
101 4 0.37759 0.209108 0.50402
1045 4 0.485044 0.231292 0.545124
1253 4 0.466977 0.219097 0.574117
1510 4 0.160538 0.250911 0.557891
245 4 0.326501 0.304439 0.556
243 2 0.329625 0.334295 0.536019
1046 4 0.418968 0.253794 0.526975
1044 2 0.452006 0.242543 0.53605
644 4 0.451822 0.346685 0.625576
1090 4 0.214511 0.322196 0.593686
1305 2 0.234937 0.409084 0.571142
244 4 0.33275 0.364151 0.516037
105 2 0.255323 0.465687 0.519244
1307 4 0.227783 0.439782 0.553626
106 4 0.249902 0.497128 0.502437
107 4 0.260744 0.434246 0.536053
234 2 0.307338 0.576006 0.511609
236 4 0.331662 0.564358 0.535548
603 2 0.493326 0.553385 0.568124
605 4 0.461379 0.554633 0.584806
1233 2 0.0218592 0.603684 0.529846
1234 4 0.0145728 0.632582 0.550149
1235 4 0.0291454 0.574787 0.509542
938 4 0.500436 0.27299 0.898287
440 4 0.35621 0.594816 0.567406
336 2 0.240394 0.696765 0.578798
338 4 0.239239 0.711891 0.546084
956 4 0.221378 0.741277 0.54329
954 2 0.199445 0.768772 0.535329
771 2 0.303067 0.766356 0.554297
773 4 0.328681 0.756628 0.530851
169 4 0.419564 0.786586 0.558614
1039 4 0.435405 0.839001 0.534909
168 2 0.429333 0.757021 0.576804
458 4 0.266281 0.859289 0.518
452 4 0.407533 0.895186 0.589277
451 4 0.454708 0.841332 0.580563
450 2 0.43112 0.868258 0.58492
780 2 0.484531 0.917575 0.550775
781 4 0.486913 0.882177 0.544321
1100 4 0.352175 0.955796 0.577776
1308 2 0.367158 0.978889 0.51653
1310 4 0.366435 0.956757 0.544992
782 4 0.482151 0.952975 0.557229
1461 2 0.148572 0.0759651 0.644294
1463 4 0.127162 0.0478058 0.651294
898 4 0.153385 0.928474 0.940384
1193 4 0.501638 0.0218173 0.608803
1462 4 0.169983 0.104124 0.637294
77 4 0.454258 0.197102 0.681887
823 4 0.335837 0.232484 0.596351
1251 2 0.480183 0.212256 0.606968
643 4 0.416889 0.315199 0.570895
642 2 0.434356 0.330942 0.598235
1091 4 0.153313 0.359591 0.586063
1418 4 0.164948 0.401266 0.596539
1306 4 0.242092 0.378386 0.588659
1089 2 0.183911 0.340893 0.589874
1416 2 0.171958 0.401633 0.631911
878 4 0.317876 0.484913 0.616819
876 2 0.292595 0.510066 0.622168
354 2 0.359485 0.453746 0.633288
355 4 0.379621 0.461866 0.66208
356 4 0.339348 0.445626 0.604495
877 4 0.267314 0.535219 0.627518
1007 4 0.260438 0.532186 0.664988
1342 4 0.0340967 0.63733 0.668057
1341 2 0.00968293 0.612544 0.658567
271 4 0.127152 0.591662 0.664957
1397 4 0.150268 0.625274 0.620196
1395 2 0.183085 0.631511 0.63378
1396 4 0.215902 0.637749 0.647365
439 4 0.366592 0.650751 0.611735
438 2 0.361401 0.622783 0.589571
22 3 0.463806 0.62219 0.647076
25 3 0.444046 0.661612 0.61621
24 3 0.454631 0.613 0.594447
21 1 0.464415 0.635854 0.61685
23 3 0.495643 0.645819 0.610111
337 4 0.241549 0.681639 0.611514
1497 2 0.256012 0.666249 0.65028
1499 4 0.267568 0.693803 0.630091
246 2 0.477881 0.718679 0.618816
248 4 0.444173 0.728285 0.627302
1240 4 0.238853 0.789598 0.653838
772 4 0.277453 0.776083 0.577742
1241 4 0.295203 0.773191 0.611918
1239 2 0.267028 0.781394 0.632878
170 4 0.439102 0.727455 0.594992
1099 4 0.378161 0.893908 0.604161
1098 2 0.365168 0.924852 0.590968
1227 2 0.0742203 0.0210989 0.679052
1228 4 0.0955656 0.0373841 0.654979
1283 4 0.423117 0.0157423 0.713259
919 4 0.43342 0.0846531 0.714242
968 4 0.0656988 0.128125 0.736273
967 4 0.115108 0.15062 0.688793
966 2 0.0904035 0.139372 0.712533
661 4 0.146167 0.0456485 0.793235
1432 4 0.236491 0.102065 0.725148
1113 2 0.210396 0.15775 0.725698
1114 4 0.204089 0.12351 0.716303
1115 4 0.216702 0.19199 0.735093
1431 2 0.255637 0.0885719 0.752567
918 2 0.406118 0.105782 0.724663
920 4 0.378815 0.12691 0.735084
646 4 0.36538 0.159482 0.647878
75 2 0.465725 0.163026 0.679102
323 4 0.020489 0.182126 0.764701
1210 4 0.138534 0.209236 0.726236
647 4 0.417698 0.189206 0.687637
645 2 0.391539 0.174344 0.667758
266 4 0.428776 0.16632 0.748926
1125 2 0.0797162 0.312641 0.726439
1209 2 0.137076 0.243373 0.71471
1211 4 0.135618 0.277511 0.703182
1126 4 0.109169 0.292007 0.723756
724 4 0.171586 0.317555 0.741952
1127 4 0.0502633 0.333275 0.729122
1488 2 0.151709 0.357517 0.718783
1417 4 0.178966 0.401998 0.667285
1490 4 0.156691 0.374309 0.687261
1370 4 0.295477 0.384045 0.79494
1095 2 0.0178461 0.443998 0.709423
1096 4 0.04834 0.440262 0.728306
526 4 0.078228 0.460595 0.721214
525 2 0.10097 0.461538 0.749185
641 4 0.233309 0.443295 0.706394
640 4 0.170583 0.407701 0.706601
639 2 0.201947 0.425498 0.706499
941 4 0.38899 0.477683 0.692956
269 4 0.473525 0.4353 0.735914
939 2 0.408447 0.460398 0.717917
1006 4 0.261938 0.531813 0.737094
1005 2 0.261188 0.531999 0.701041
270 2 0.136854 0.609234 0.694916
272 4 0.146567 0.626806 0.724876
161 4 0.121619 0.656295 0.737499
1498 4 0.244455 0.638695 0.67047
830 4 0.186382 0.636607 0.728077
828 2 0.212864 0.652242 0.70922
160 4 0.0744318 0.700618 0.705713
1036 4 0.0921876 0.731364 0.697771
159 2 0.0980258 0.678455 0.721605
829 4 0.239338 0.667872 0.690372
889 4 0.275148 0.774333 0.77224
1058 4 0.371832 0.674024 0.759979
1035 2 0.0871257 0.757111 0.722508
1037 4 0.0820635 0.782856 0.747245
444 2 0.200608 0.799043 0.729197
446 4 0.173952 0.782831 0.711113
445 4 0.227263 0.815255 0.747283
890 4 0.306622 0.76287 0.708368
888 2 0.290885 0.768601 0.740304
821 4 0.42579 0.769914 0.687839
819 2 0.435598 0.798816 0.707046
1391 4 0.0313358 0.89062 0.697556
1389 2 0.066997 0.885395 0.698735
1390 4 0.102658 0.880171 0.699914
1215 2 0.13272 0.923545 0.699624
1216 4 0.10466 0.910638 0.718238
339 2 0.213089 0.878226 0.732759
340 4 0.23426 0.849926 0.73992
1403 4 0.365176 0.891069 0.707421
1401 2 0.396366 0.87301 0.70862
1402 4 0.427557 0.854951 0.70982
1172 4 0.471972 0.837055 0.695102
820 4 0.445406 0.827718 0.726253
568 4 0.0141153 0.921187 0.712145
1229 4 0.052874 0.00481374 0.703127
567 2 0.0355709 0.94884 0.720828
569 4 0.0570261 0.976493 0.729511
1217 4 0.16078 0.936451 0.681011
982 4 0.243235 0.976568 0.692482
983 4 0.183678 0.940944 0.712118
981 2 0.213457 0.958756 0.7023
341 4 0.191917 0.906526 0.725598
849 2 0.306959 0.958437 0.706292
850 4 0.342853 0.960585 0.709017
851 4 0.271065 0.95629 0.703566
1281 2 0.428472 0.980303 0.717235
1282 4 0.433828 0.944864 0.72121
176 4 0.0258634 0.0969142 0.773666
181 4 0.288986 0.04663 0.800427
180 2 0.259396 0.0261106 0.798467
182 4 0.229806 0.00559097 0.796506
1433 4 0.274783 0.075078 0.779985
274 4 0.015258 0.137287 0.79662
273 2 0.0164073 0.137531 0.832662
660 2 0.165641 0.0759856 0.794161
662 4 0.185114 0.106322 0.795087
564 2 0.332564 0.101661 0.770449
566 4 0.296939 0.101964 0.776034
565 4 0.368188 0.101359 0.764864
321 2 0.0516069 0.198649 0.772387
322 4 0.0827251 0.215171 0.780074
320 4 0.10563 0.231852 0.80524
318 2 0.13972 0.239601 0.814084
1268 4 0.276698 0.217403 0.776264
1266 2 0.295635 0.24312 0.79301
265 4 0.416828 0.216518 0.799316
264 2 0.422803 0.19142 0.774121
319 4 0.173811 0.247352 0.822928
723 2 0.168669 0.297516 0.771789
725 4 0.165751 0.277475 0.801627
1267 4 0.314572 0.268837 0.809755
35 3 0.317019 0.300451 0.815397
1489 4 0.146728 0.340726 0.750306
867 2 0.1339 0.404752 0.796278
868 4 0.144383 0.370954 0.789336
1369 4 0.250533 0.415886 0.748379
1368 2 0.273005 0.399966 0.77166
32 3 0.326053 0.352748 0.824369
869 4 0.123416 0.438549 0.803223
527 4 0.123712 0.46248 0.777155
940 4 0.427903 0.443112 0.742878
1083 2 0.479868 0.414761 0.809252
1085 4 0.448923 0.430068 0.798834
1259 4 0.0879314 0.567975 0.770168
257 4 0.134965 0.538997 0.813225
825 2 0.187994 0.583301 0.762158
826 4 0.207364 0.553497 0.768238
667 4 0.159029 0.653107 0.753232
1258 4 0.130563 0.62567 0.762675
1257 2 0.10925 0.596817 0.766418
680 4 0.160625 0.63485 0.789485
678 2 0.152971 0.626527 0.82374
827 4 0.168632 0.613119 0.756073
116 4 0.195071 0.641522 0.768058
114 2 0.221319 0.6514 0.790748
115 4 0.247556 0.661277 0.81343
666 2 0.157451 0.687764 0.76314
668 4 0.155878 0.722402 0.773045
1057 4 0.411521 0.716665 0.802502
1056 2 0.391677 0.695345 0.78124
1162 4 0.083135 0.816256 0.763592
402 2 0.331161 0.793188 0.814306
404 4 0.321293 0.801244 0.78057
167 4 0.345232 0.827298 0.788437
326 4 0.455172 0.764157 0.822485
324 2 0.450137 0.799456 0.817097
19 3 0.0817951 0.88981 0.8383
1161 2 0.0868366 0.846718 0.782536
1163 4 0.0905399 0.877178 0.80148
18 3 0.125096 0.896912 0.805451
166 4 0.379877 0.890378 0.783718
165 2 0.362555 0.858839 0.786078
610 4 0.489451 0.896921 0.840582
325 4 0.445101 0.834755 0.811708
1002 2 0.999914 0.991519 0.776441
1003 4 0.0335114 0.981141 0.784436
1022 4 0.35846 0.916368 0.799345
1020 2 0.383738 0.928336 0.822109
923 4 0.316528 0.0250211 0.930066
550 4 0.385054 0.0591478 0.906637
549 2 0.351986 0.0456536 0.901654
242 4 0.418477 0.0717991 0.916085
275 4 0.0175564 0.137775 0.868706
386 4 0.0772744 0.130944 0.900389
384 2 0.110962 0.127941 0.912899
701 4 0.197225 0.178931 0.927963
184 4 0.222079 0.279385 0.927172
34 3 0.30012 0.323222 0.861706
31 1 0.324154 0.322757 0.838424
33 3 0.353618 0.315551 0.852562
448 4 0.0495855 0.431923 0.92437
676 4 0.23368 0.395989 0.869874
675 2 0.21558 0.391961 0.900803
995 4 0.378247 0.351301 0.852794
993 2 0.413099 0.35121 0.862054
994 4 0.44795 0.351119 0.871313
955 4 0.177511 0.796267 0.527368
254 4 0.478689 0.357724 0.858783
202 4 0.0556601 0.426259 0.887161
201 2 0.0885834 0.440834 0.889165
203 4 0.121507 0.45541 0.89117
256 4 0.107855 0.5087 0.872797
255 2 0.12141 0.523849 0.843011
679 4 0.145319 0.618203 0.857982
913 4 0.251887 0.693706 0.830499
572 4 0.099429 0.723016 0.851896
571 4 0.104442 0.717254 0.923612
570 2 0.101936 0.720135 0.887754
1483 4 0.139257 0.764516 0.906697
912 2 0.283191 0.678608 0.840117
914 4 0.314498 0.66351 0.849735
172 4 0.353179 0.680337 0.851178
171 2 0.369084 0.683132 0.883422
1484 4 0.209372 0.778949 0.897914
1482 2 0.174315 0.771732 0.902306
403 4 0.34103 0.785131 0.848042
16 1 0.112193 0.903545 0.835607
17 3 0.131957 0.890492 0.858837
609 2 0.46148 0.913887 0.855756
20 3 0.110248 0.936029 0.840067
899 4 0.133314 0.926959 0.871127
897 2 0.14335 0.927717 0.905756
1021 4 0.409016 0.940304 0.844873
611 4 0.433508 0.930851 0.870929
651 2 0.0181497 0.0613015 0.988865
189 2 0.196769 0.0552418 0.963094
190 4 0.211446 0.0226302 0.967721
921 2 0.295671 0.0150119 0.957728
922 4 0.274813 0.00500286 0.98539
551 4 0.318919 0.0321594 0.896671
952 4 0.473769 0.0756474 0.976834
240 2 0.440029 0.0498227 0.934873
241 4 0.461579 0.027846 0.953661
703 4 0.490288 0.0189692 0.932658
385 4 0.14465 0.124938 0.925409
699 2 0.185988 0.144773 0.930672
700 4 0.174752 0.110614 0.933379
191 4 0.182091 0.0878536 0.958468
951 2 0.478952 0.110881 0.971165
953 4 0.484135 0.146115 0.965496
1225 4 0.0886896 0.228715 0.987119
1246 4 0.371222 0.183453 0.974161
1245 2 0.353259 0.213672 0.966129
1372 4 0.427103 0.201079 0.986954
1373 4 0.454856 0.185659 0.922197
1371 2 0.440979 0.19337 0.954576
635 4 0.0673857 0.309861 0.954818
633 2 0.101849 0.304551 0.945627
634 4 0.136312 0.29924 0.936435
1000 4 0.179093 0.282024 0.946621
999 2 0.181054 0.317722 0.94191
198 2 0.326536 0.320684 0.971648
185 4 0.292169 0.289182 0.913274
183 2 0.257124 0.284283 0.920223
199 4 0.317137 0.296157 0.946939
1247 4 0.335296 0.243892 0.958097
447 2 0.0137007 0.432514 0.920855
1001 4 0.183014 0.353421 0.937198
677 4 0.19748 0.387933 0.931731
230 4 0.0537648 0.463717 0.938545
228 2 0.0584683 0.457696 0.973788
434 4 0.269672 0.447295 0.935514
432 2 0.260023 0.459507 0.968043
433 4 0.250374 0.47172 0.000572716
734 4 0.471004 0.602999 0.989189
1030 4 0.362121 0.623141 0.947344
1029 2 0.397194 0.631413 0.945961
1031 4 0.432266 0.639684 0.944579
558 2 0.0295318 0.700635 0.946677
1378 4 0.081145 0.736186 0.988778
559 4 0.0228228 0.736038 0.945277
560 4 0.036242 0.66523 0.948077
1379 4 0.128442 0.70201 0.946392
1377 2 0.104794 0.719098 0.967585
1248 2 0.351235 0.696317 0.9692
1250 4 0.362982 0.701406 0.935488
173 4 0.38499 0.685927 0.915665
1337 4 0.042727 0.817665 0.963009
1335 2 0.0287716 0.790341 0.944061
1173 2 0.485977 0.809054 0.972858
1175 4 0.452124 0.821428 0.974
1156 4 0.101404 0.836432 0.948749
1157 4 0.133271 0.896767 0.972113
1155 2 0.117337 0.866599 0.960431
601 4 0.217 0.857008 0.950241
600 2 0.246014 0.860579 0.971357
523 4 0.16825 0.917089 0.985949
522 2 0.152633 0.947683 0.996928
578 4 0.00693183 0.194005 0.54097
76 4 0.477191 0.12895 0.676316
267 2 0.499282 0.460524 0.736741
1336 4 0.0148162 0.763017 0.925112
200 4 0.335935 0.345211 0.996356
1147 4 0.16331 0.144273 0.509695
883 4 0.182618 0.624047 0.506868
1252 4 0.493389 0.205414 0.639819
140 4 0.0864195 0.0687188 0.997251
1457 4 0.238821 0.503802 0.997839
130 4 0.334337 0.745783 0.984683
971 4 0.356745 0.881724 0.990959
674 4 0.503105 0.109349 0.417281
1507 4 0.671842 0.0338384 0.036035
1506 2 0.663312 0.0409758 0.0703387
220 4 0.616004 0.119686 0.0279941
219 2 0.627744 0.09621 0.00326652
779 4 0.755258 0.136532 0.00568614
751 4 0.727069 0.146284 0.027633
750 2 0.711256 0.146791 0.0600394
777 2 0.745987 0.169763 0.99519
802 4 0.720118 0.221252 0.0200411
109 4 0.834462 0.186741 0.0406937
108 2 0.834619 0.220389 0.0277225
128 4 0.529455 0.300404 0.0298996
786 2 0.560855 0.347585 0.0879893
126 2 0.511711 0.269559 0.0357364
801 2 0.708918 0.250432 0.0380292
803 4 0.697719 0.279612 0.0560167
110 4 0.834776 0.254035 0.0147512
787 4 0.563653 0.365002 0.0565371
839 4 0.542552 0.392069 0.065193
837 2 0.509766 0.403923 0.0559754
1330 4 0.986781 0.0871151 0.382348
608 4 0.69433 0.384225 0.992808
250 4 0.694428 0.354577 0.016598
1492 4 0.881915 0.409345 0.0670847
1491 2 0.887845 0.407811 0.0315473
1443 2 0.673228 0.495349 0.00722703
1380 2 0.813097 0.430925 0.0798134
1382 4 0.840926 0.408564 0.0747192
1467 2 0.912826 0.933043 0.469086
1 1 0.528246 0.577181 0.0800136
4 3 0.532797 0.549272 0.062116
1444 4 0.656475 0.507086 0.0369258
125 4 0.632904 0.525834 0.0551804
123 2 0.616609 0.542688 0.0825815
1238 4 0.739438 0.541505 0.0846017
416 4 0.755768 0.960503 0.471187
1516 4 0.720985 0.863152 0.0158459
5 3 0.540713 0.602964 0.063932
290 4 0.644289 0.657828 0.0323127
289 4 0.715028 0.666423 0.0211826
288 2 0.679658 0.662125 0.0267475
1232 4 0.747726 0.648942 0.0181289
1230 2 0.783148 0.645065 0.0236677
1231 4 0.818569 0.641187 0.0292069
262 4 0.521952 0.69269 0.0695512
980 4 0.515331 0.714852 0.040763
775 4 0.606069 0.707067 0.0650266
774 2 0.635037 0.705472 0.0864451
776 4 0.664006 0.703878 0.107862
1405 4 0.839875 0.738516 0.0310607
978 2 0.517027 0.741613 0.0166514
1367 4 0.807091 0.758536 0.0676407
958 4 0.601556 0.882702 0.063488
472 4 0.505068 0.928524 0.00864655
957 2 0.622099 0.853418 0.0680571
959 4 0.642642 0.824135 0.072627
329 4 0.606046 0.904497 0.094477
1054 4 0.505874 0.98145 0.345921
1244 4 0.985362 0.812499 0.25443
874 4 0.670643 0.924274 0.0952498
504 2 0.987568 0.412476 0.309258
1517 4 0.791431 0.855882 0.00220537
1515 2 0.756208 0.859518 0.00902584
1326 2 0.930262 0.912374 0.0179543
791 4 0.992077 0.979822 0.120531
1047 2 0.542578 0.95535 0.047399
1049 4 0.565152 0.98214 0.0559498
327 2 0.613749 0.939138 0.0880643
328 4 0.621453 0.973778 0.0816514
1495 4 0.755499 0.937932 0.0206899
873 2 0.688788 0.952225 0.0814688
875 4 0.706933 0.980175 0.0676868
944 4 0.831746 0.943898 0.0541236
1494 2 0.77713 0.934655 0.0493557
1496 4 0.798761 0.931379 0.0780227
943 4 0.897999 0.940504 0.0258256
942 2 0.864872 0.942201 0.0399744
1327 4 0.931802 0.939141 0.0420703
1324 4 0.986744 0.964931 0.033685
1323 2 0.980298 0.980831 0.00196688
1508 4 0.654782 0.0481123 0.104642
619 4 0.59395 0.0708691 0.104437
620 4 0.612407 0.0201113 0.152234
618 2 0.603179 0.0454901 0.128336
112 4 0.689823 0.0502765 0.121611
111 2 0.707786 0.0473181 0.152739
752 4 0.695445 0.147298 0.0924448
656 4 0.886992 0.15621 0.126036
1322 4 0.667238 0.208828 0.172478
655 4 0.925314 0.217111 0.121128
654 2 0.906153 0.18666 0.123582
590 4 0.911515 0.226442 0.0901138
788 4 0.558058 0.330169 0.119441
589 4 0.901912 0.295799 0.107408
588 2 0.906713 0.26112 0.0987612
563 4 0.727891 0.386539 0.14449
561 2 0.748622 0.406496 0.122757
192 2 0.91392 0.400524 0.139761
193 4 0.893914 0.38502 0.165446
194 4 0.933927 0.416028 0.114075
1381 4 0.785269 0.453286 0.0849073
562 4 0.769353 0.426453 0.101024
3 3 0.543013 0.574129 0.109889
124 4 0.600314 0.559542 0.109983
1237 4 0.798137 0.582851 0.0914336
1236 2 0.768788 0.562178 0.0880172
343 4 0.832524 0.5669 0.0984282
342 2 0.842818 0.546751 0.126508
344 4 0.853112 0.526603 0.154588
1186 4 0.68898 0.722434 0.123093
1024 4 0.766693 0.685667 0.11603
1023 2 0.773724 0.719175 0.104707
1025 4 0.780757 0.752682 0.0933821
1185 2 0.702042 0.755528 0.128973
1187 4 0.715105 0.788621 0.134854
1365 2 0.814789 0.793373 0.0728892
1366 4 0.822486 0.82821 0.0781376
157 4 0.899539 0.0019219 0.144981
156 2 0.931956 0.986127 0.14523
158 4 0.964373 0.970333 0.145478
43 3 0.984513 0.997022 0.0619858
389 4 0.574032 0.0323176 0.228696
387 2 0.546449 0.0141461 0.243164
683 4 0.640025 0.0253078 0.175311
113 4 0.725749 0.04436 0.183868
1435 4 0.718787 0.0230067 0.212788
1434 2 0.753458 0.01442 0.207825
1436 4 0.788128 0.00583351 0.202862
1123 4 0.86484 0.0656697 0.144715
119 4 0.904646 0.0966041 0.268335
79 4 0.513478 0.13238 0.190004
80 4 0.578511 0.111127 0.212822
78 2 0.545994 0.121753 0.201413
27 3 0.585802 0.140378 0.235263
29 3 0.609574 0.102677 0.204411
26 1 0.614839 0.126346 0.227475
30 3 0.635095 0.149293 0.215562