ITEM: TIMESTEP
864000
ITEM: NUMBER OF ATOMS
1520
ITEM: BOX BOUNDS pp pp pp
-6.9326749999999997e+00 6.9326749999999997e+00
-6.9326749999999997e+00 6.9326749999999997e+00
-6.9326749999999997e+00 6.9326749999999997e+00
ITEM: ATOMS id type xs ys zs
1139 4 0.126966 0.055607 0.0800702
774 2 0.273096 0.983758 0.0674335
776 4 0.305805 0.978158 0.0815473
1107 2 0.336987 0.0171077 0.0197554
1109 4 0.30557 0.0263454 0.00465376
754 4 0.0170455 0.717836 0.222993
980 4 0.47971 0.593093 0.0241238
1463 4 0.420305 0.14665 0.0544826
1426 4 0.409213 0.150869 0.0905421
389 4 0.200469 0.22336 0.0631176
1461 2 0.447844 0.16905 0.0481341
1462 4 0.475383 0.191448 0.0417861
539 4 0.484225 0.103129 0.244048
277 4 0.289038 0.316808 0.12927
276 2 0.268834 0.336967 0.107228
917 4 0.465344 0.331608 0.0551179
1217 4 0.469322 0.361675 0.0385335
1215 2 0.450958 0.385068 0.01814
901 4 0.0342594 0.486618 0.0526605
1483 4 0.340275 0.509822 0.0639311
1355 4 0.416013 0.470671 0.0396041
1353 2 0.423909 0.505014 0.0319452
224 4 0.241149 0.860993 0.460492
1233 2 0.423705 0.572918 0.0793706
1354 4 0.431804 0.539356 0.0242855
1235 4 0.429665 0.544229 0.0583509
1057 4 0.15531 0.645445 0.0162812
1056 2 0.135444 0.616487 0.0244771
883 4 0.180768 0.671938 0.0282004
871 4 0.352818 0.634323 0.0597455
870 2 0.366163 0.643049 0.0920898
1234 4 0.417745 0.601606 0.10039
222 2 0.269683 0.878672 0.447314
319 4 0.416431 0.77067 0.0277594
1477 4 0.0486799 0.957658 0.444613
318 2 0.440362 0.79131 0.0103904
491 4 0.493156 0.420794 0.446031
349 4 0.462621 0.00552394 0.0771673
471 2 0.32118 0.9298 0.0164712
472 4 0.337583 0.961216 0.0231367
489 2 0.499668 0.403375 0.476928
775 4 0.240388 0.989357 0.0533192
1108 4 0.368404 0.00787007 0.0348569
473 4 0.304778 0.898385 0.00980565
350 4 0.413648 0.0558982 0.0608685
782 4 0.0632782 0.106814 0.0842196
1138 4 0.0572548 0.0727455 0.0870212
1137 2 0.0921104 0.0641764 0.0835457
1070 4 0.200465 0.999505 0.161305
1068 2 0.20654 0.0350336 0.160189
454 4 0.340431 0.0392402 0.11137
453 2 0.357072 0.0357029 0.143166
780 2 0.0476163 0.136878 0.0965158
781 4 0.0319547 0.166943 0.108813
1238 4 0.229854 0.0872956 0.132175
1236 2 0.261058 0.102752 0.122802
1237 4 0.292262 0.118208 0.113429
1427 4 0.444116 0.0918808 0.112987
1425 2 0.426664 0.121374 0.101765
910 4 0.452026 0.114007 0.144089
86 4 0.04462 0.153236 0.140677
388 4 0.172327 0.200021 0.125286
387 2 0.186398 0.211691 0.094202
1460 4 0.306313 0.217224 0.117326
1458 2 0.2789 0.227855 0.0964458
1459 4 0.251487 0.238486 0.0755668
1002 2 0.180114 0.298659 0.11146
1003 4 0.153257 0.319889 0.10013
1004 4 0.206971 0.277428 0.12279
278 4 0.248631 0.357126 0.0851858
1119 2 0.339169 0.25136 0.173097
1120 4 0.354026 0.27406 0.196853
878 4 0.255473 0.412521 0.0356025
876 2 0.243172 0.427191 0.0661617
551 4 0.13915 0.382561 0.137432
549 2 0.118174 0.405206 0.156077
1028 4 0.237776 0.472176 0.116503
877 4 0.230871 0.44186 0.0967214
1026 2 0.204167 0.481017 0.106876
1482 2 0.342248 0.489364 0.0935611
215 4 0.338307 0.488741 0.150422
900 2 0.033085 0.498244 0.0867757
902 4 0.031911 0.50987 0.120891
1489 4 0.194695 0.541955 0.109624
1027 4 0.170558 0.489858 0.0972479
1488 2 0.218204 0.550757 0.135513
1484 4 0.344221 0.468904 0.12319
359 4 0.436886 0.614527 0.152028
596 4 0.438488 0.580279 0.140999
1490 4 0.241712 0.55956 0.161403
12 3 0.242293 0.661164 0.134832
872 4 0.379509 0.651774 0.124434
875 4 0.369023 0.685305 0.114527
357 2 0.455534 0.643314 0.140894
358 4 0.474182 0.672102 0.12976
730 4 0.0950468 0.733666 0.156309
272 4 0.0952698 0.703775 0.14162
874 4 0.376911 0.722027 0.176097
873 2 0.372967 0.703666 0.145311
729 2 0.0925962 0.767964 0.167169
731 4 0.090146 0.802264 0.17803
53 4 0.432104 0.798387 0.139529
125 4 0.463848 0.815158 0.151607
52 4 0.374965 0.839844 0.154298
51 2 0.403534 0.819116 0.146913
322 4 0.165949 0.00496151 0.177962
348 2 0.438135 0.0307111 0.0690178
1053 2 0.0509328 0.0731128 0.178175
1054 4 0.0175617 0.0863415 0.174742
1055 4 0.0843035 0.0598837 0.181608
323 4 0.0983485 0.0279557 0.18812
1069 4 0.212614 0.0705617 0.159073
455 4 0.373712 0.0321656 0.174962
374 4 0.477202 0.944818 0.407481
1058 4 0.115578 0.587529 0.0326736
1020 2 0.285792 0.133354 0.204816
737 4 0.244888 0.177307 0.217524
1022 4 0.278123 0.163545 0.222984
1021 4 0.293462 0.103164 0.186648
909 2 0.460457 0.116159 0.179085
85 4 0.0548691 0.196822 0.197219
84 2 0.0497448 0.175029 0.168948
1082 4 0.0497851 0.230196 0.216099
736 4 0.221641 0.243618 0.201273
735 2 0.233265 0.210462 0.209398
911 4 0.468888 0.11831 0.214081
1081 4 0.0129209 0.2917 0.223845
1080 2 0.0313534 0.260948 0.219972
1132 4 0.215152 0.275965 0.190972
1131 2 0.18349 0.292455 0.196069
1133 4 0.151827 0.308945 0.201166
1121 4 0.324312 0.228659 0.149339
1006 4 0.264675 0.379855 0.314606
618 2 0.0764558 0.417806 0.235275
620 4 0.0575784 0.427017 0.264587
1323 2 0.315826 0.399397 0.22331
1325 4 0.324006 0.415601 0.19215
1324 4 0.307646 0.383193 0.25447
686 4 0.306338 0.419509 0.277531
619 4 0.0953332 0.408596 0.205962
550 4 0.0971982 0.427851 0.174722
213 2 0.365288 0.49554 0.17336
214 4 0.392269 0.502339 0.196299
1073 4 0.128364 0.601199 0.222609
1071 2 0.140996 0.599268 0.25633
567 2 0.221368 0.57137 0.217053
595 4 0.415389 0.525153 0.181363
594 2 0.426938 0.552716 0.161181
1072 4 0.153628 0.597336 0.290051
521 4 0.110247 0.700678 0.243918
15 3 0.194901 0.654557 0.159484
568 4 0.218899 0.583558 0.183203
11 1 0.225493 0.642894 0.156847
13 3 0.224741 0.611162 0.146242
14 3 0.240986 0.64468 0.186456
271 4 0.0853959 0.658361 0.196772
270 2 0.0903332 0.681068 0.169197
541 4 0.157932 0.756433 0.25785
540 2 0.178288 0.743319 0.231127
542 4 0.198643 0.730207 0.204404
1429 4 0.211235 0.751257 0.174491
1428 2 0.218959 0.786479 0.174963
1430 4 0.226681 0.8217 0.175435
124 4 0.479643 0.795668 0.219226
123 2 0.471745 0.805413 0.185417
155 4 0.0726732 0.897837 0.253645
232 4 0.107135 0.889188 0.2674
231 2 0.137622 0.89302 0.248524
233 4 0.168109 0.896852 0.229649
410 4 0.185365 0.913319 0.197658
408 2 0.196701 0.88234 0.183091
137 4 0.212511 0.934938 0.208003
409 4 0.208037 0.85136 0.168526
153 2 0.0561419 0.925615 0.23766
154 4 0.039611 0.953394 0.221676
321 2 0.132148 0.0164585 0.183041
135 2 0.197917 0.963859 0.223846
136 4 0.183323 0.99278 0.23969
1253 4 0.172437 0.00952698 0.276896
1252 4 0.201685 0.0742447 0.264336
1251 2 0.187061 0.041886 0.270616
845 4 0.214076 0.0787542 0.29705
843 2 0.228095 0.105572 0.316662
844 4 0.242113 0.132391 0.336276
109 4 0.258928 0.154865 0.318381
108 2 0.29026 0.162449 0.30222
110 4 0.321591 0.170034 0.286058
537 2 0.484729 0.126284 0.271689
538 4 0.485234 0.149439 0.29933
670 4 0.0273846 0.211784 0.284252
487 4 0.0124721 0.241851 0.29753
486 2 0.0240014 0.275986 0.299027
669 2 0.0418336 0.201862 0.315767
961 4 0.1362 0.241991 0.290764
488 4 0.0355313 0.310122 0.300524
55 4 0.0652535 0.301827 0.277299
733 4 0.0497126 0.32807 0.328282
54 2 0.0943621 0.281563 0.270776
56 4 0.12347 0.261301 0.264253
1005 2 0.270793 0.344317 0.314646
1007 4 0.276911 0.308778 0.314686
185 4 0.49266 0.333465 0.287351
183 2 0.465716 0.314299 0.301742
563 4 0.0341069 0.437621 0.29159
561 2 0.0541656 0.425086 0.318809
1366 4 0.131884 0.355467 0.284116
1365 2 0.131207 0.390901 0.290777
684 2 0.302749 0.437617 0.308509
70 4 0.424446 0.472266 0.29119
562 4 0.0742254 0.41255 0.346029
1367 4 0.130531 0.426335 0.297438
685 4 0.299161 0.455725 0.339487
69 2 0.40842 0.439963 0.290805
71 4 0.392395 0.40766 0.29042
223 4 0.298218 0.89635 0.434136
263 4 0.466552 0.472894 0.282795
569 4 0.223837 0.559182 0.250901
738 2 0.216935 0.557351 0.302649
739 4 0.206621 0.577208 0.27437
740 4 0.227249 0.537494 0.330929
64 4 0.183591 0.682871 0.303565
201 2 0.480292 0.654655 0.261683
202 4 0.445729 0.65703 0.271693
519 2 0.132335 0.684416 0.267328
520 4 0.154423 0.668153 0.290739
560 4 0.423201 0.747965 0.292975
558 2 0.389828 0.748575 0.279329
559 4 0.356453 0.749184 0.265684
1313 4 0.449933 0.766748 0.285393
139 4 0.215212 0.798925 0.234798
138 2 0.21955 0.809049 0.269136
212 4 0.268326 0.807873 0.32975
1281 2 0.309502 0.767979 0.271189
1282 4 0.294465 0.791091 0.294429
1283 4 0.324538 0.744867 0.247948
1520 4 0.305963 0.815299 0.319903
226 4 0.289018 0.789245 0.477746
1311 2 0.476083 0.781276 0.265256
140 4 0.223888 0.819174 0.303473
1519 4 0.295408 0.878546 0.286888
1518 2 0.300685 0.846922 0.303395
1467 2 0.341255 0.945869 0.330768
1468 4 0.355278 0.943421 0.297635
689 4 0.385579 0.929603 0.284278
687 2 0.394725 0.934334 0.249719
688 4 0.403871 0.939065 0.215159
935 4 0.236963 0.0255079 0.386566
933 2 0.272516 0.0314744 0.387493
934 4 0.308067 0.037441 0.38842
22 3 0.330001 0.038845 0.355324
23 3 0.374562 0.0249083 0.382865
1161 2 0.42625 0.00222825 0.359851
21 1 0.351285 0.0141258 0.361374
423 2 0.479138 0.0596704 0.382013
425 4 0.477495 0.0238167 0.378517
1162 4 0.46083 0.992501 0.363008
671 4 0.0562828 0.19194 0.347281
516 2 0.325263 0.0878783 0.412464
518 4 0.340152 0.119912 0.405211
424 4 0.480781 0.0955244 0.385509
172 4 0.0706056 0.17481 0.373361
171 2 0.0771827 0.206738 0.388779
960 2 0.15782 0.223813 0.313182
962 4 0.17944 0.205635 0.335599
1029 2 0.190831 0.190141 0.388872
1031 4 0.166898 0.20967 0.370265
732 2 0.0668226 0.318425 0.358525
734 4 0.0839324 0.30878 0.388768
1381 4 0.116188 0.299315 0.409518
1231 4 0.402585 0.313266 0.345756
1230 2 0.4173 0.318822 0.378207
1062 2 0.0133737 0.565967 0.314191
372 2 0.464615 0.967317 0.432696
580 4 0.348838 0.377163 0.411749
581 4 0.34218 0.30788 0.430647
579 2 0.345509 0.342522 0.421198
184 4 0.438772 0.295133 0.316134
1232 4 0.432014 0.324379 0.410657
281 4 0.459916 0.348595 0.405071
439 4 0.0825426 0.428476 0.37742
438 2 0.10974 0.44745 0.363252
440 4 0.136936 0.466424 0.349084
353 4 0.169046 0.474443 0.367128
351 2 0.17865 0.460731 0.399068
352 4 0.188254 0.44702 0.431009
998 4 0.417028 0.431211 0.405307
996 2 0.410131 0.463655 0.391157
1064 4 0.0346097 0.594556 0.319853
1096 4 0.0683021 0.577227 0.374431
1203 2 0.279117 0.558825 0.354305
1204 4 0.31045 0.575683 0.348436
758 4 0.321693 0.589281 0.381029
756 2 0.35731 0.588249 0.375483
997 4 0.403235 0.496099 0.377007
1095 2 0.101507 0.588999 0.382129
65 4 0.172612 0.683562 0.374844
1097 4 0.134711 0.600771 0.389828
63 2 0.178101 0.683216 0.339205
1205 4 0.247784 0.541966 0.360175
1117 4 0.42967 0.579433 0.354592
757 4 0.392927 0.587218 0.369936
1118 4 0.497276 0.59732 0.336952
1116 2 0.463473 0.588377 0.345772
659 4 0.0340294 0.72277 0.372025
1043 4 0.0734085 0.715153 0.369143
1041 2 0.068485 0.679925 0.375073
1078 4 0.28075 0.680496 0.350362
1079 4 0.284596 0.648633 0.41495
1077 2 0.282673 0.664565 0.382656
657 2 0.00441172 0.736387 0.387447
1159 4 0.180407 0.746002 0.365759
1158 2 0.186257 0.780702 0.357882
1433 4 0.260136 0.762201 0.410466
1160 4 0.192107 0.815403 0.350005
211 4 0.28271 0.762982 0.384335
210 2 0.275518 0.785427 0.357043
1469 4 0.327233 0.948318 0.363901
24 3 0.334499 0.988407 0.374669
1163 4 0.391669 0.0119565 0.356694
25 3 0.365447 0.00490546 0.333209
1392 2 0.0186991 0.791649 0.477252
971 4 0.25199 0.0352015 0.498874
1471 4 0.0533161 0.921197 0.45274
969 2 0.278925 0.0446076 0.476818
517 4 0.310374 0.0558453 0.419717
970 4 0.30586 0.0540143 0.454763
784 4 0.443428 0.0219987 0.480787
373 4 0.452029 0.989816 0.457912
1106 4 0.481496 0.00114844 0.490842
812 4 0.00902333 0.199359 0.195317
1394 4 0.0467706 0.776324 0.460593
1454 4 0.268578 0.129034 0.448906
1452 2 0.235225 0.134605 0.43638
1453 4 0.201871 0.140176 0.423854
785 4 0.406425 0.0838539 0.483328
783 2 0.424926 0.0529264 0.482058
160 4 0.0902565 0.412079 0.00929384
173 4 0.0837604 0.238666 0.404197
819 2 0.0112854 0.284306 0.476788
1030 4 0.214765 0.170612 0.407479
528 2 0.390884 0.203694 0.474305
530 4 0.424312 0.190815 0.478443
898 4 0.0245096 0.376038 0.462409
824 4 0.00775097 0.36573 0.433815
897 2 0.0596286 0.367852 0.462583
820 4 0.0454761 0.278529 0.486688
801 2 0.248579 0.340783 0.4496
575 4 0.287472 0.300749 0.463679
573 2 0.306275 0.270003 0.464937
802 4 0.252572 0.307154 0.46199
529 4 0.357456 0.216573 0.470167
574 4 0.325079 0.239258 0.466196
147 2 0.474187 0.314975 0.464988
148 4 0.447146 0.33001 0.446464
1470 2 0.0589519 0.892295 0.473557
707 4 0.135192 0.358375 0.495657
1380 2 0.119312 0.31356 0.442499
1382 4 0.122436 0.327806 0.47548
608 4 0.156663 0.355337 0.466387
606 2 0.171099 0.381414 0.446088
803 4 0.244585 0.374413 0.437209
279 2 0.473167 0.382008 0.407972
280 4 0.486417 0.415421 0.410874
42 3 0.0149993 0.506549 0.488877
44 3 0.0210349 0.452762 0.491876
41 1 0.0182306 0.478779 0.471015
43 3 0.0457032 0.481241 0.452064
607 4 0.185534 0.407491 0.42579
1476 2 0.0487772 0.978577 0.473986
571 4 0.203415 0.547719 0.403836
570 2 0.184287 0.578281 0.404547
1074 2 0.414081 0.574697 0.48957
1076 4 0.417026 0.550221 0.463251
1196 4 0.0491704 0.607296 0.473768
1042 4 0.0635612 0.644698 0.381004
1195 4 0.0795014 0.634949 0.414464
1194 2 0.064336 0.621123 0.444116
1373 4 0.14985 0.724064 0.486233
572 4 0.16516 0.608843 0.405259
1432 4 0.221432 0.706715 0.435466
1371 2 0.174458 0.704089 0.469032
1372 4 0.199066 0.684115 0.451832
899 4 0.0947479 0.359665 0.462758
1431 2 0.240784 0.734458 0.422965
1472 4 0.0645879 0.863393 0.494373
496 4 0.00798087 0.35134 0.0507215
225 2 0.294481 0.822564 0.490408
1289 4 0.287154 0.75478 0.00656084
724 4 0.00817835 0.011788 0.623506
592 4 0.0242485 0.00575977 0.589656
591 2 0.0255147 0.991859 0.556405
953 4 0.153897 0.0208553 0.504032
1190 4 0.296856 0.0273157 0.572842
951 2 0.18746 0.00960736 0.510918
1473 2 0.451666 0.0701629 0.557499
314 4 0.263325 0.964574 0.948712
1369 4 0.120881 0.132935 0.553608
1368 2 0.110571 0.0995891 0.544542
296 4 0.12134 0.163094 0.532058
1184 4 0.278332 0.143687 0.57527
1474 4 0.477784 0.0527574 0.539741
1330 4 0.331275 0.226468 0.548595
1329 2 0.304984 0.21813 0.525363
1331 4 0.278694 0.209791 0.502131
457 4 0.429393 0.186814 0.539294
1411 4 0.436722 0.378937 0.562459
1478 4 0.0488745 0.999496 0.503359
706 4 0.12981 0.423805 0.525519
705 2 0.132501 0.391091 0.510589
1487 4 0.40458 0.398933 0.549968
1485 2 0.372425 0.382986 0.546475
1486 4 0.340271 0.36704 0.542982
1412 4 0.480502 0.325238 0.542427
1410 2 0.458612 0.352087 0.552443
257 4 0.164576 0.417908 0.530213
255 2 0.200025 0.419947 0.536508
256 4 0.235474 0.421986 0.542803
509 4 0.0495934 0.597215 0.507046
1424 4 0.425114 0.629444 0.505154
1075 4 0.411136 0.599172 0.515888
508 4 0.0254907 0.606315 0.57441
507 2 0.0375422 0.601765 0.540728
480 2 0.154525 0.609725 0.573938
1239 2 0.300203 0.577037 0.535024
1240 4 0.275132 0.595951 0.5173
1241 4 0.325275 0.558124 0.552748
1422 2 0.437126 0.63373 0.538885
1423 4 0.449138 0.638016 0.572615
317 4 0.0228827 0.774804 0.515203
315 2 0.0407726 0.769011 0.545974
481 4 0.18587 0.592525 0.578633
1305 2 0.496096 0.683009 0.566723
585 2 0.497637 0.841168 0.989163
316 4 0.0586622 0.763218 0.576744
499 4 0.257863 0.749811 0.576332
498 2 0.267863 0.760873 0.543499
500 4 0.277863 0.771934 0.510665
587 4 0.495686 0.875669 0.978856
586 4 0.499588 0.806666 0.99947
930 2 0.0753025 0.940707 0.595841
931 4 0.0901689 0.927205 0.625793
129 2 0.288571 0.901057 0.524379
131 4 0.269356 0.877566 0.504902
227 4 0.299943 0.855885 0.503069
932 4 0.0604358 0.954208 0.56589
512 4 0.0766915 0.98121 0.556324
510 2 0.109401 0.991031 0.54475
511 4 0.142112 0.000853094 0.533176
130 4 0.307786 0.924547 0.543856
838 4 0.370567 0.984764 0.510735
837 2 0.396827 0.993071 0.534011
839 4 0.423087 0.00137827 0.557289
390 2 0.0426022 0.912306 0.905816
1188 2 0.271795 0.0289132 0.598722
1189 4 0.246733 0.030511 0.624602
1496 4 0.2131 0.0424966 0.636081
849 2 0.391139 0.967716 0.605719
968 4 0.410797 0.0900135 0.649439
391 4 0.0388312 0.907739 0.941387
851 4 0.374522 0.939347 0.620536
416 4 0.491205 0.991953 0.624579
1475 4 0.425547 0.0875682 0.575256
710 4 0.253406 0.168069 0.568924
1183 4 0.341696 0.121316 0.601462
1182 2 0.310014 0.132502 0.588366
966 2 0.398743 0.0962191 0.616023
967 4 0.38669 0.102424 0.582607
628 4 0.402075 0.0693404 0.677214
294 2 0.121995 0.185182 0.560555
295 4 0.12265 0.207269 0.589052
645 2 0.178577 0.275263 0.644777
646 4 0.21274 0.283407 0.636592
709 4 0.242272 0.195548 0.634671
708 2 0.247839 0.181809 0.601798
647 4 0.144415 0.267119 0.652962
869 4 0.269582 0.191066 0.655828
458 4 0.416528 0.233627 0.592628
456 2 0.42296 0.21022 0.565961
617 4 0.426012 0.252437 0.619569
615 2 0.407903 0.25145 0.650737
1193 4 0.0506122 0.241155 0.62558
1191 2 0.0416162 0.274302 0.636571
343 4 0.10173 0.366011 0.691072
1297 4 0.267575 0.439971 0.540507
1296 2 0.292087 0.459426 0.558425
1298 4 0.316599 0.47888 0.576343
895 4 0.0718548 0.605221 0.613087
482 4 0.123179 0.626925 0.569243
527 4 0.467645 0.694614 0.606579
1201 4 0.142914 0.814194 0.674981
302 4 0.171337 0.701477 0.569473
300 2 0.197295 0.726268 0.566014
526 4 0.448325 0.69008 0.675917
525 2 0.457985 0.692347 0.641248
1306 4 0.470237 0.664549 0.583779
1200 2 0.119613 0.798716 0.652225
1202 4 0.0963116 0.783238 0.629467
301 4 0.223253 0.75106 0.562555
248 4 0.492963 0.728568 0.568945
246 2 0.487445 0.762578 0.579588
247 4 0.481928 0.796589 0.59023
977 4 0.00360415 0.88294 0.545446
644 4 0.186931 0.853876 0.635417
83 4 0.461482 0.822626 0.603071
82 4 0.450139 0.854267 0.666882
81 2 0.455811 0.838446 0.634976
234 2 0.314072 0.947516 0.592958
235 4 0.311967 0.941222 0.628402
236 4 0.316178 0.953811 0.557513
850 4 0.407755 0.996084 0.590902
1186 4 0.0301682 0.0598993 0.736117
1185 2 0.00727339 0.057558 0.708355
1494 2 0.210162 0.0673184 0.662075
1495 4 0.207222 0.0921399 0.688068
621 2 0.238652 0.0824354 0.744798
622 4 0.225012 0.0741656 0.712457
629 4 0.421248 0.0269584 0.73233
627 2 0.411662 0.0481494 0.704772
952 4 0.221023 0.998359 0.517805
604 4 0.327107 0.157502 0.696014
603 2 0.294705 0.153025 0.711195
605 4 0.262303 0.148549 0.726377
623 4 0.252293 0.0907054 0.77714
1010 4 0.387569 0.16023 0.773244
868 4 0.27767 0.24679 0.700896
867 2 0.273626 0.218928 0.678362
91 4 0.335285 0.240107 0.714839
1192 4 0.0326199 0.307448 0.647561
792 2 0.0979434 0.27103 0.719143
793 4 0.0784978 0.258319 0.691562
794 4 0.117389 0.283741 0.746724
89 4 0.246434 0.257806 0.722782
87 2 0.265549 0.266042 0.75223
616 4 0.389793 0.250462 0.681906
344 4 0.0606584 0.311337 0.668148
342 2 0.0811943 0.338674 0.67961
859 4 0.376723 0.353846 0.746221
858 2 0.390426 0.331027 0.721891
860 4 0.40413 0.308208 0.697562
467 4 0.25302 0.521981 0.709545
466 4 0.237501 0.5231 0.779969
465 2 0.245261 0.52254 0.744757
894 2 0.0880031 0.620728 0.641357
583 4 0.138327 0.64751 0.665371
896 4 0.104152 0.636235 0.669627
582 2 0.13955 0.648475 0.701398
1018 4 0.222443 0.604458 0.708968
1017 2 0.245705 0.628438 0.722544
1019 4 0.268966 0.652418 0.73612
797 4 0.310324 0.639861 0.721044
795 2 0.315221 0.659561 0.750849
679 4 0.18243 0.758567 0.745966
796 4 0.320117 0.679261 0.780654
854 4 0.448254 0.728259 0.667308
852 2 0.436645 0.738979 0.699723
101 4 0.106576 0.773849 0.74463
100 4 0.0754724 0.740558 0.688721
99 2 0.0910243 0.757203 0.716676
259 4 0.209964 0.757784 0.709684
258 2 0.226833 0.786246 0.724028
1102 4 0.28309 0.816454 0.745862
260 4 0.243702 0.814707 0.738372
79 4 0.033779 0.925006 0.688836
78 2 0.0561751 0.903707 0.707416
80 4 0.0785713 0.882408 0.725995
515 4 0.109806 0.861701 0.723681
642 2 0.202406 0.847704 0.667399
643 4 0.217881 0.841532 0.69938
815 4 0.218015 0.876505 0.711212
813 2 0.216713 0.91126 0.720743
1134 2 0.442096 0.889962 0.691461
1220 4 0.173651 0.85408 0.977224
1136 4 0.462606 0.861897 0.701057
1400 4 0.497194 0.872776 0.709664
1398 2 0.497091 0.866912 0.745246
1441 4 0.324531 0.97374 0.63674
1447 4 0.222077 0.968329 0.757997
1442 4 0.300981 0.0239256 0.682874
1440 2 0.312756 0.998832 0.659807
1135 4 0.421586 0.918027 0.681864
250 4 0.0324451 0.0901 0.754975
249 2 0.0627096 0.0734543 0.765339
251 4 0.0929736 0.0568088 0.775702
1364 4 0.221675 0.979877 0.834423
1402 4 0.445338 0.125073 0.777129
1390 4 0.436101 0.150531 0.978004
230 4 0.138591 0.152335 0.7902
229 4 0.118972 0.221732 0.791027
228 2 0.128781 0.187033 0.790613
142 4 0.253618 0.164385 0.759876
1009 4 0.40074 0.101806 0.73306
1008 2 0.394155 0.131018 0.753152
1401 2 0.45456 0.0928419 0.790415
1247 4 0.253802 0.260959 0.807204
143 4 0.188585 0.188121 0.780098
141 2 0.221102 0.176253 0.769987
88 4 0.284664 0.274278 0.781678
90 2 0.352306 0.238459 0.746588
1245 2 0.247953 0.283396 0.834823
92 4 0.369326 0.236811 0.778337
1370 4 0.10026 0.066244 0.535476
375 2 0.082937 0.315046 0.811333
376 4 0.0720838 0.349167 0.807047
557 4 0.298594 0.340304 0.785274
556 4 0.357423 0.377441 0.766256
555 2 0.328008 0.358873 0.775765
33 3 0.0571992 0.389713 0.852697
34 3 0.103616 0.404574 0.827613
1141 4 0.196908 0.432909 0.778371
718 4 0.400203 0.421232 0.831039
337 4 0.234011 0.553867 0.800826
336 2 0.266864 0.568715 0.801623
1259 4 0.152618 0.614777 0.836503
584 4 0.140775 0.64944 0.737426
668 4 0.246826 0.652115 0.767817
666 2 0.229287 0.668379 0.794804
1036 4 0.345119 0.637012 0.817998
1280 4 0.0453593 0.66529 0.853635
1257 2 0.161882 0.648958 0.829704
667 4 0.211746 0.684629 0.821793
678 2 0.186225 0.734521 0.772571
1258 4 0.171148 0.683138 0.822905
680 4 0.19001 0.710474 0.799157
116 4 0.223847 0.723227 0.817756
827 4 0.19066 0.714594 0.839623
114 2 0.256258 0.736853 0.809818
853 4 0.425035 0.749699 0.732137
1035 2 0.37116 0.654366 0.835917
1037 4 0.397202 0.67172 0.853836
115 4 0.288682 0.750494 0.801881
1101 2 0.294964 0.799981 0.775663
1103 4 0.306838 0.783507 0.805463
513 2 0.12893 0.877517 0.749844
1334 4 0.125984 0.917043 0.78716
514 4 0.148053 0.893333 0.776008
127 4 0.22775 0.892893 0.853461
126 2 0.220525 0.898772 0.818623
128 4 0.2133 0.904651 0.783786
1403 4 0.463782 0.0606105 0.803701
1212 2 0.473277 0.905747 0.812525
814 4 0.21541 0.946014 0.730274
1448 4 0.255389 0.985605 0.819588
1446 2 0.238733 0.976967 0.788793
593 4 0.0267808 0.977958 0.523155
274 4 0.401675 0.292849 0.912431
882 2 0.187446 0.672033 0.992763
989 4 0.2606 0.0226309 0.887486
313 4 0.248146 0.989417 0.882727
987 2 0.273422 0.0472074 0.864421
1273 4 0.0619079 0.162966 0.853158
1272 2 0.0919328 0.156535 0.872067
787 4 0.316737 0.0951193 0.832824
988 4 0.286245 0.0717841 0.841356
786 2 0.344748 0.0927458 0.855411
292 4 0.350746 0.207974 0.89967
788 4 0.37276 0.090372 0.877997
715 4 0.406232 0.0834063 0.85776
714 2 0.419464 0.0944356 0.889441
716 4 0.432695 0.105465 0.921122
1376 4 0.485423 0.005527 0.779841
191 4 0.0939433 0.211643 0.88164
1274 4 0.121958 0.150104 0.890977
252 2 0.204797 0.215562 0.878248
254 4 0.174699 0.232736 0.86827
291 2 0.329366 0.184641 0.916958
1104 2 0.496641 0.029123 0.507827
1506 2 0.495879 0.25475 0.897014
189 2 0.0960842 0.243126 0.864184
190 4 0.0982253 0.274607 0.84673
377 4 0.0937902 0.280925 0.815618
1246 4 0.242104 0.305833 0.862442
1508 4 0.46844 0.254455 0.920412
942 2 0.23516 0.364783 0.873522
944 4 0.249189 0.39794 0.871471
943 4 0.221131 0.331626 0.875573
1091 4 0.307318 0.370288 0.92707
1175 4 0.396094 0.373907 0.898417
1173 2 0.417232 0.398431 0.914297
1174 4 0.438369 0.422955 0.930177
31 1 0.0828943 0.41115 0.853056
35 3 0.0990468 0.408806 0.881559
32 3 0.0711734 0.441999 0.849643
1140 2 0.163364 0.426597 0.790005
1142 4 0.12982 0.420285 0.80164
1268 4 0.248172 0.457819 0.852896
76 4 0.234137 0.489001 0.853926
1266 2 0.270514 0.431756 0.841856
1267 4 0.292857 0.405692 0.830815
326 4 0.31664 0.472659 0.868758
719 4 0.352844 0.460605 0.86857
717 2 0.376523 0.440918 0.849805
77 4 0.181859 0.530459 0.881308
75 2 0.207998 0.50973 0.867618
338 4 0.299717 0.583562 0.802421
325 4 0.336338 0.505022 0.930128
324 2 0.326488 0.48884 0.899443
493 4 0.336785 0.597514 0.912266
1278 2 0.0384439 0.630954 0.845051
1279 4 0.0315284 0.596619 0.836467
829 4 0.268609 0.65643 0.888323
494 4 0.274 0.622093 0.886661
492 2 0.305392 0.609804 0.899463
825 2 0.194813 0.747217 0.8544
828 2 0.247995 0.68041 0.870991
830 4 0.227378 0.704391 0.85366
1516 4 0.438599 0.794877 0.868877
826 4 0.198963 0.779842 0.869191
664 4 0.227678 0.82691 0.902536
1517 4 0.395626 0.746284 0.9004
1515 2 0.417112 0.770581 0.884639
193 4 0.478317 0.785166 0.870941
192 2 0.478585 0.820942 0.866429
194 4 0.478853 0.856719 0.861918
1322 4 0.0285157 0.931988 0.839665
663 2 0.211917 0.85702 0.914596
665 4 0.196157 0.887129 0.926655
1213 4 0.448239 0.931698 0.81272
392 4 0.0463728 0.916874 0.870244
1332 2 0.13092 0.927441 0.821335
1333 4 0.135856 0.93784 0.855509
1362 2 0.194337 0.96313 0.850935
1363 4 0.167001 0.946382 0.867446
312 2 0.255736 0.976995 0.91572
940 4 0.4187 0.954234 0.864794
939 2 0.417795 0.941102 0.898367
1391 4 0.419675 0.0804159 0.974027
602 4 0.486279 0.145395 0.947361
253 4 0.234895 0.198388 0.888226
307 4 0.222098 0.208176 0.921054
308 4 0.276493 0.167203 0.944802
306 2 0.249296 0.187689 0.932928
293 4 0.307986 0.161308 0.934245
275 4 0.447253 0.254394 0.952995
273 2 0.424464 0.273622 0.932714
161 4 0.0325321 0.38123 0.978998
1090 4 0.299445 0.42557 0.972717
1089 2 0.303381 0.397929 0.949893
159 2 0.0613946 0.396654 0.994146
565 4 0.495345 0.147288 0.859726
265 4 0.421802 0.470365 0.915543
266 4 0.401974 0.539281 0.923237
264 2 0.411888 0.504823 0.91939
419 4 0.0147185 0.416477 0.574177
711 2 0.198474 0.546546 0.943065
712 4 0.208663 0.54781 0.977634
713 4 0.188286 0.545284 0.908498
919 4 0.366672 0.581246 0.926707
403 4 0.00594779 0.737704 0.989104
978 2 0.480939 0.610021 0.992307
920 4 0.425914 0.597154 0.888775
918 2 0.396294 0.5892 0.907741
979 4 0.482167 0.626949 0.960489
884 4 0.194125 0.672127 0.957326
1399 4 0.496988 0.861047 0.780827
476 4 0.459163 0.731337 0.914744
474 2 0.480054 0.712628 0.937414
1046 4 0.382647 0.848513 0.991965
168 2 0.0650907 0.7999 0.947525
170 4 0.0555151 0.7653 0.944121
169 4 0.0746666 0.8345 0.950928
1288 4 0.311328 0.779698 0.943344
1287 2 0.299241 0.767239 0.974952
1218 2 0.137835 0.851351 0.974035
1219 4 0.102019 0.848623 0.970846
941 4 0.416889 0.92797 0.93194
1045 4 0.414965 0.90683 0.964461
1044 2 0.398807 0.877672 0.978213
1389 2 0.427888 0.115473 0.976016
1216 4 0.432595 0.408462 0.997746
329 4 0.00337156 0.904046 0.687287
576 2 0.48786 0.0316148 0.825661
577 4 0.470672 0.0588885 0.84182
1177 4 0.0132877 0.186813 0.915077
320 4 0.464294 0.81195 0.993021
417 2 0.00359856 0.421374 0.540224
1214 4 0.498316 0.879796 0.81233
437 4 0.608483 0.0743381 0.0623004
436 4 0.678335 0.0895103 0.0527074
435 2 0.643409 0.0819244 0.0575041
1098 2 0.745082 0.146932 0.100385
1099 4 0.732846 0.156168 0.0677453
1168 4 0.976545 0.179494 0.0656132
1198 4 0.560282 0.212762 0.0486356
984 2 0.988134 0.120615 0.190712
658 4 0.974794 0.750004 0.402868
1197 2 0.561805 0.176918 0.0449833
1100 4 0.757318 0.137697 0.133026
904 4 0.848877 0.205572 0.0108533
916 4 0.537117 0.330953 0.0621785
822 2 0.998719 0.354679 0.400698
1492 4 0.792429 0.310294 0.0499983
112 4 0.771763 0.285066 0.0639287
1169 4 0.949988 0.132817 0.017472
495 2 0.00109512 0.320041 0.0341864
1123 4 0.912961 0.396236 0.0364811
311 4 0.551145 0.36286 0.0681526
309 2 0.57785 0.387087 0.0686815
990 2 0.994638 0.472742 0.017871
310 4 0.604556 0.411314 0.0692105
821 4 0.977095 0.290084 0.466887
269 4 0.684531 0.391498 0.0394702
1491 2 0.803615 0.330252 0.0221243
1312 4 0.502235 0.795803 0.245121
726 2 0.755409 0.422884 0.0277918
1124 4 0.958659 0.390311 0.0919627
1122 2 0.93581 0.393273 0.0642221
339 2 0.549516 0.839991 0.447388
807 2 0.651178 0.434756 0.0143179
808 4 0.674465 0.422441 0.0389428
727 4 0.744137 0.425278 0.0619636
991 4 0.000335676 0.490179 0.0489176
45 3 0.991755 0.475044 0.451938
149 4 0.501228 0.299939 0.483512
504 2 0.724223 0.553703 0.0195572
505 4 0.690083 0.556569 0.0308106
506 4 0.758364 0.550837 0.00830259
355 4 0.558367 0.593638 0.0266047
354 2 0.55616 0.60982 0.0587564
356 4 0.553953 0.626002 0.0909073
986 4 0.980421 0.0891717 0.17483
1085 4 0.691521 0.579924 0.999951
1265 4 0.81494 0.625453 0.0123165
1346 4 0.940193 0.604745 0.0367336
1344 2 0.945875 0.613039 0.00210222
167 4 0.927743 0.642968 0.0426549
1263 2 0.796044 0.654528 0.0222147
955 4 0.767475 0.718477 0.0382237
1264 4 0.777148 0.683603 0.032113
165 2 0.942088 0.675926 0.0455565
412 4 0.667693 0.771913 0.00495641
954 2 0.773573 0.745947 0.0156699
39 3 0.909722 0.776904 0.458156
1150 4 0.813681 0.776546 0.00523976
1149 2 0.8196 0.81129 0.0128729
399 2 0.558797 0.889305 0.09089
400 4 0.573284 0.882989 0.0584766
1466 4 0.57381 0.919022 0.0470976
341 4 0.544081 0.868695 0.426246
464 4 0.656492 0.814092 0.141847
1151 4 0.825519 0.846033 0.0205053
469 4 0.869736 0.984501 0.00841882
468 2 0.887852 0.958068 0.0249571
1034 4 0.837235 0.999677 0.00445045
470 4 0.905968 0.931634 0.0414955
267 2 0.697918 0.369764 0.0139983
1352 4 0.837509 0.998506 0.113637
1350 2 0.859794 0.993913 0.141613
994 4 0.988446 0.0555431 0.118209
995 4 0.988221 0.00378352 0.168433
993 2 0.988333 0.0296632 0.143321
1199 4 0.563329 0.141075 0.0413314
746 4 0.867968 0.252412 0.100124
113 4 0.835987 0.25561 0.0783965
745 4 0.844565 0.185848 0.0851858
744 2 0.856267 0.21913 0.0926549
497 4 0.994209 0.288743 0.0176516
810 2 0.976599 0.209689 0.20725
811 4 0.944176 0.22002 0.219183
111 2 0.803874 0.270338 0.0711626
1308 2 0.619672 0.392303 0.133847
1309 4 0.605848 0.402333 0.102087
640 4 0.65267 0.41435 0.222761
1378 4 0.800256 0.43832 0.103818
1377 2 0.764962 0.443388 0.0984229
1379 4 0.729669 0.448455 0.0930266
1361 4 0.952805 0.391771 0.126529
1360 4 0.918108 0.442483 0.164292
1359 2 0.935456 0.417127 0.145411
1511 4 0.55112 0.594311 0.171121
1509 2 0.540366 0.570886 0.145901
1510 4 0.529612 0.547462 0.120682
479 4 0.653498 0.547146 0.176843
477 2 0.649776 0.575721 0.155164
1114 4 0.80532 0.610432 0.160922
1295 4 0.531476 0.656259 0.092149
1293 2 0.551705 0.659353 0.121841
133 4 0.60506 0.67717 0.141697
132 2 0.634307 0.656585 0.137077
478 4 0.646056 0.604297 0.133484
134 4 0.663553 0.636001 0.132456
1113 2 0.820421 0.639172 0.17662
1261 4 0.813608 0.727692 0.159668
166 4 0.956432 0.708884 0.048458
1262 4 0.826968 0.798496 0.156519
1260 2 0.820288 0.763094 0.158093
401 4 0.544309 0.895621 0.123303
17 3 0.571025 0.890974 0.193615
16 1 0.553723 0.864531 0.183511
19 3 0.571976 0.836988 0.188816
18 3 0.547125 0.867752 0.150861