ITEM: TIMESTEP
1162000
ITEM: NUMBER OF ATOMS
1520
ITEM: BOX BOUNDS pp pp pp
-6.9326749999999997e+00 6.9326749999999997e+00
-6.9326749999999997e+00 6.9326749999999997e+00
-6.9326749999999997e+00 6.9326749999999997e+00
ITEM: ATOMS id type xs ys zs
417 2 0.0663635 0.00630125 0.0834164
693 2 0.154703 0.986882 0.0631806
694 4 0.186111 0.969238 0.0615493
1472 4 0.138503 0.0502908 0.0271752
1118 4 0.283453 0.95246 0.0539974
695 4 0.123296 0.00452612 0.0648114
352 4 7.27588e-05 0.435738 0.387669
1066 4 0.388166 0.0368441 0.0734891
1065 2 0.392503 0.00129496 0.0692633
1470 2 0.141055 0.0852871 0.0188602
1488 2 0.328673 0.14279 0.0242692
1490 4 0.345208 0.11512 0.00810298
1325 4 0.180501 0.982126 0.426456
1192 4 0.242366 0.264723 0.0880049
476 4 0.274977 0.252853 0.0855202
475 4 0.297203 0.187461 0.0647481
474 2 0.28609 0.220157 0.0751336
404 4 0.227251 0.272129 0.0222984
1071 2 0.00467574 0.627513 0.488247
130 4 0.450632 0.299961 0.0187641
1465 4 0.194704 0.423448 0.0402567
131 4 0.407192 0.357311 0.0238298
129 2 0.428912 0.328636 0.0212963
1483 4 0.432127 0.373915 0.0451149
1188 2 0.157718 0.409384 0.00360623
1190 4 0.161892 0.420026 0.0378071
1464 2 0.210685 0.403234 0.0654827
1484 4 0.443738 0.444341 0.0554611
1482 2 0.437933 0.409128 0.0502879
329 4 0.47633 0.455632 0.0703214
199 4 0.139431 0.533551 0.089502
401 4 0.109318 0.545305 0.0666961
399 2 0.0864566 0.572456 0.0603201
832 4 0.42668 0.881874 0.461427
1228 4 0.237912 0.549544 0.00903422
1227 2 0.230059 0.558786 0.0429946
1262 4 0.00138737 0.693508 0.31422
328 4 0.469402 0.508527 0.118857
327 2 0.472866 0.48208 0.0945888
379 4 0.450218 0.537062 0.119058
1026 2 0.00652726 0.941166 0.198904
1376 4 0.445546 0.987037 0.357939
81 2 0.148584 0.620572 0.0106567
180 2 0.422343 0.610967 0.0715401
182 4 0.400041 0.587429 0.0557609
586 4 0.357412 0.666429 0.0332842
181 4 0.444645 0.634506 0.08732
373 4 0.265203 0.857499 0.441913
45 3 0.107236 0.858802 0.443054
724 4 0.477468 0.632873 0.00144372
424 4 0.492151 0.000417077 0.466798
224 4 0.489131 0.798414 0.0179277
1323 2 0.211274 0.99693 0.414867
782 4 0.487228 0.758639 0.0176565
222 2 0.458475 0.799081 0.0369049
1443 2 0.425422 0.904213 0.00600514
418 4 0.0492525 0.977897 0.0692469
1332 2 0.0831634 0.935776 0.0357781
1333 4 0.0581996 0.961485 0.0398104
1334 4 0.108128 0.910066 0.0317465
654 2 0.0133914 0.726032 0.213986
1041 2 0.0120923 0.747832 0.317047
1116 2 0.282062 0.975814 0.0265551
1444 4 0.458574 0.918396 0.00650385
585 2 0.344539 0.653796 0.00205744
1028 4 0.0325493 0.966025 0.196605
1067 4 0.39684 0.965746 0.0650373
1162 4 0.0992966 0.0662418 0.100382
419 4 0.0834722 0.0347055 0.0975847
1161 2 0.0825967 0.0959666 0.112127
390 2 0.214672 0.0617536 0.184095
391 4 0.220566 0.0736095 0.150552
392 4 0.208778 0.0498986 0.217637
223 4 0.427818 0.799747 0.055882
683 4 0.48684 0.0584361 0.140612
1163 4 0.0658971 0.125692 0.123871
862 4 0.0323167 0.11234 0.113833
861 2 0.0059938 0.136891 0.11602
1191 2 0.20794 0.269618 0.0975615
245 4 0.225117 0.232684 0.143546
836 4 0.33981 0.213264 0.164622
834 2 0.367598 0.190674 0.168857
440 4 0.37221 0.260731 0.111299
1044 2 0.12624 0.245587 0.110033
1045 4 0.0973774 0.243354 0.131535
1046 4 0.155104 0.24782 0.0885312
53 4 0.124278 0.258116 0.15515
1193 4 0.173514 0.274513 0.107117
446 4 0.364247 0.368319 0.109452
439 4 0.377134 0.332623 0.108323
438 2 0.374672 0.296676 0.109811
1440 2 0.125866 0.440094 0.178042
1387 4 0.136978 0.315691 0.129365
1442 4 0.128869 0.40699 0.192027
1386 2 0.170919 0.321829 0.139889
1388 4 0.20486 0.327966 0.150413
445 4 0.310034 0.350881 0.153705
444 2 0.33714 0.3596 0.131579
208 4 0.0668844 0.44053 0.147958
207 2 0.0570497 0.460843 0.119832
209 4 0.0472152 0.481155 0.0917056
198 2 0.145033 0.512375 0.118148
200 4 0.150635 0.491199 0.146795
1441 4 0.122863 0.473197 0.164056
1466 4 0.226667 0.38302 0.0907091
266 4 0.271744 0.470061 0.0785095
264 2 0.263161 0.486834 0.109258
877 4 0.400424 0.506193 0.137975
876 2 0.380135 0.495872 0.110006
280 4 0.436688 0.47014 0.19605
878 4 0.359846 0.485553 0.0820373
279 2 0.462 0.463468 0.171247
982 4 0.0554434 0.582366 0.130726
981 2 0.0208707 0.572214 0.132168
1431 2 0.171199 0.816304 0.0109582
1229 4 0.222206 0.568028 0.0769552
378 2 0.471059 0.566475 0.118077
400 4 0.0635959 0.599606 0.0539444
1035 2 0.063451 0.649086 0.141729
1037 4 0.0718678 0.614021 0.141823
387 2 0.468891 0.653135 0.146026
389 4 0.468853 0.626027 0.122245
380 4 0.4919 0.595888 0.117095
745 4 0.291401 0.180962 0.00812342
761 4 0.0250937 0.69582 0.111117
1036 4 0.0550346 0.684152 0.141634
1448 4 0.156472 0.961803 0.443904
1496 4 0.0429221 0.719843 0.133246
840 2 0.212522 0.744571 0.0770256
841 4 0.191084 0.738332 0.105343
842 4 0.233959 0.750808 0.0487074
697 4 0.274872 0.745639 0.15561
696 2 0.303228 0.726428 0.144326
698 4 0.331582 0.707218 0.133041
388 4 0.468929 0.680243 0.169808
1494 2 0.0529486 0.753307 0.142197
531 2 0.256593 0.824727 0.165018
532 4 0.284817 0.829557 0.143097
83 4 0.174037 0.640422 0.0267351
822 2 0.0186972 0.841966 0.120682
824 4 0.05121 0.827522 0.126573
1060 4 0.448732 0.872848 0.105273
1059 2 0.48176 0.864983 0.117427
502 4 0.31512 0.0995615 0.176173
501 2 0.307503 0.0670214 0.189721
503 4 0.299885 0.0344816 0.203269
243 2 0.242692 0.209903 0.165284
244 4 0.260268 0.187122 0.187021
835 4 0.395384 0.168083 0.17309
741 2 0.0424758 0.773365 0.0237545
655 4 0.0424857 0.744453 0.224692
622 4 0.0190402 0.297717 0.257775
51 2 0.141745 0.265444 0.185835
52 4 0.159211 0.272773 0.216521
160 4 0.134796 0.28237 0.242535
506 4 0.477717 0.253274 0.242295
1321 4 0.471851 0.234262 0.21025
1320 2 0.464937 0.266979 0.196751
808 4 0.185642 0.407217 0.211998
807 2 0.208547 0.392956 0.235924
809 4 0.231451 0.378696 0.259849
38 3 0.29749 0.398751 0.188541
36 1 0.278204 0.372288 0.19544
39 3 0.246101 0.379711 0.189586
40 3 0.282118 0.363447 0.226831
37 3 0.28714 0.347091 0.175797
1446 2 0.1327 0.960918 0.471006
1098 2 0.499319 0.352587 0.220099
1099 4 0.478854 0.329649 0.201243
265 4 0.254581 0.503607 0.140006
1394 4 0.466815 0.43321 0.23116
1392 2 0.450738 0.449954 0.258756
152 4 0.146644 0.559629 0.248115
150 2 0.111024 0.558134 0.242693
151 4 0.0754048 0.556641 0.23727
1481 4 0.124863 0.701233 0.159569
631 4 0.274772 0.702635 0.256195
319 4 0.0375596 0.763051 0.256857
1480 4 0.0887312 0.715353 0.22037
1479 2 0.106797 0.708293 0.189969
302 4 0.223383 0.741961 0.214766
300 2 0.218866 0.775535 0.227128
630 2 0.2782 0.688793 0.223073
632 4 0.281629 0.674951 0.189951
1201 4 0.3188 0.675136 0.190556
1200 2 0.352071 0.68807 0.19567
1202 4 0.385343 0.701004 0.200784
960 2 0.38786 0.749442 0.23797
961 4 0.389694 0.713427 0.237781
1302 2 0.493742 0.666295 0.25148
922 4 0.0859133 0.808915 0.164004
318 2 0.0176 0.793066 0.255785
1495 4 0.0629741 0.786769 0.151148
921 2 0.0962239 0.813051 0.198311
923 4 0.106536 0.817186 0.232618
533 4 0.228368 0.819898 0.186938
143 4 0.230365 0.846348 0.215309
360 2 0.392961 0.821577 0.201867
362 4 0.372284 0.792066 0.203283
141 2 0.243211 0.85357 0.248221
361 4 0.413637 0.851087 0.200451
570 2 0.430138 0.883382 0.231996
571 4 0.438773 0.878589 0.197314
229 4 0.31407 0.00573127 0.222549
228 2 0.339511 0.985741 0.206625
230 4 0.364951 0.96575 0.190702
1421 4 0.39106 0.984436 0.180628
1420 4 0.453276 0.963126 0.210236
572 4 0.421502 0.888175 0.266678
1419 2 0.422167 0.973781 0.195433
184 4 0.463774 0.928634 0.218302
1108 4 0.0288485 0.998629 0.292736
1107 2 0.0298833 0.996839 0.256734
815 4 0.08558 0.0101798 0.286496
437 4 0.231729 0.0104684 0.371219
435 2 0.260587 0.0168386 0.350555
436 4 0.289444 0.0232094 0.32989
1375 4 0.491606 0.968049 0.305788
548 4 0.0578368 0.258582 0.354968
504 2 0.483602 0.231607 0.270514
505 4 0.489486 0.209939 0.298733
547 4 0.0389123 0.286081 0.291036
546 2 0.0483745 0.272331 0.323002
159 2 0.147994 0.288555 0.275519
161 4 0.161189 0.294744 0.308501
667 4 0.175643 0.322552 0.335131
668 4 0.210738 0.354846 0.281003
666 2 0.193194 0.338703 0.308059
496 4 0.275525 0.373555 0.263973
495 2 0.30452 0.366681 0.284282
1433 4 0.155335 0.839914 0.0331226
843 2 0.499944 0.35525 0.305963
845 4 0.488418 0.344772 0.338486
497 4 0.333515 0.359806 0.304592
1393 4 0.434661 0.466698 0.286353
55 4 0.452896 0.495569 0.29801
634 4 0.366882 0.506954 0.333914
633 2 0.376844 0.541287 0.329184
985 4 0.496297 0.575898 0.306416
54 2 0.46029 0.525538 0.316655
56 4 0.467683 0.555507 0.335299
235 4 0.0730115 0.790463 0.466893
1303 4 0.497427 0.669321 0.215736
635 4 0.386808 0.57562 0.324455
1304 4 0.490057 0.663267 0.287225
984 2 0.484287 0.604973 0.288786
986 4 0.472276 0.634049 0.271157
833 4 0.48359 0.837691 0.458143
1042 4 0.0016974 0.72275 0.293315
886 4 0.285664 0.670399 0.262824
166 4 0.147651 0.727427 0.260525
885 2 0.27359 0.65858 0.294683
887 4 0.261518 0.646762 0.326542
875 4 0.356829 0.664253 0.499218
165 2 0.127006 0.755386 0.250908
167 4 0.10636 0.783345 0.241291
301 4 0.214349 0.809109 0.239489
962 4 0.386026 0.785456 0.238159
647 4 0.0312905 0.831705 0.267359
646 4 0.0337826 0.901196 0.286503
645 2 0.0325362 0.86645 0.276931
142 4 0.256058 0.860792 0.281134
1109 4 0.0309184 0.99505 0.220733
813 2 0.116287 0.992329 0.280266
814 4 0.146994 0.974477 0.274036
977 4 0.336634 0.92817 0.340874
1374 2 0.468576 0.977543 0.331863
976 4 0.330018 0.982375 0.387989
1152 2 0.0859643 0.154868 0.396859
1154 4 0.0993984 0.134954 0.369963
458 4 0.067069 0.243671 0.423
1153 4 0.0725297 0.174781 0.423755
271 4 0.211791 0.226375 0.311251
1327 4 0.00107338 0.305565 0.421548
1259 4 0.0906656 0.254556 0.363684
1257 2 0.116731 0.277518 0.354001
1258 4 0.142806 0.300486 0.344321
827 4 0.170341 0.307729 0.373326
825 2 0.178282 0.289865 0.403637
270 2 0.195782 0.254621 0.326943
272 4 0.179773 0.282874 0.342648
828 2 0.243298 0.309413 0.360912
830 4 0.207444 0.309949 0.356961
829 4 0.279138 0.308877 0.364863
1129 4 0.474793 0.288444 0.389658
1128 2 0.443811 0.282138 0.372315
679 4 0.0836826 0.372355 0.360346
678 2 0.115444 0.355283 0.35999
680 4 0.147207 0.338215 0.359634
116 4 0.18721 0.344224 0.367421
114 2 0.189349 0.370814 0.391703
115 4 0.191489 0.397396 0.415976
433 4 0.410958 0.36235 0.338288
432 2 0.394096 0.363606 0.37014
122 4 0.465996 0.825408 0.429566
650 4 0.448005 0.402205 0.368903
648 2 0.483337 0.394998 0.369176
1322 4 0.458022 0.299696 0.183253
1016 4 0.136494 0.462922 0.454117
1014 2 0.116035 0.433287 0.452219
1015 4 0.0955759 0.403651 0.450321
968 4 0.308529 0.467816 0.332589
967 4 0.287692 0.401989 0.35343
966 2 0.29811 0.434902 0.34301
1450 4 0.442495 0.471837 0.434018
1149 2 0.0345944 0.528331 0.36707
1150 4 0.00865922 0.544085 0.347587
929 4 0.291877 0.519072 0.43618
1405 4 0.339205 0.539473 0.394645
1404 2 0.334193 0.574294 0.386715
1406 4 0.329181 0.609114 0.378786
991 4 0.383145 0.634336 0.384646
407 4 0.104642 0.755116 0.367972
314 4 0.164602 0.727783 0.44569
313 4 0.139675 0.752999 0.382885
312 2 0.152139 0.740391 0.414288
1312 4 0.459784 0.675668 0.404848
1311 2 0.425714 0.686528 0.409507
44 3 0.0581022 0.839227 0.430745
405 2 0.0887031 0.784373 0.381771
406 4 0.0727647 0.813631 0.39557
42 3 0.0958446 0.845051 0.392276
1439 4 0.307431 0.580074 0.478406
43 3 0.072992 0.889207 0.413871
41 1 0.0836375 0.858122 0.420219
1463 4 0.128174 0.924151 0.37263
374 4 0.217869 0.860695 0.38759
372 2 0.241535 0.859097 0.414752
1462 4 0.0884138 0.958658 0.421924
1461 2 0.108294 0.941405 0.397278
975 2 0.333326 0.955272 0.364432
1324 4 0.242046 0.0117317 0.403279
700 4 0.320781 0.015201 0.404761
701 4 0.255655 0.0334031 0.429839
699 2 0.288218 0.0243013 0.417299
281 4 0.487313 0.456796 0.146444
457 4 0.0371018 0.188751 0.458882
456 2 0.0520858 0.216211 0.440941
1130 4 0.412829 0.275831 0.354973
831 2 0.455135 0.859782 0.459784
562 4 0.173042 0.254107 0.462804
826 4 0.18623 0.271997 0.433935
1074 2 0.365939 0.294081 0.462442
1076 4 0.354744 0.283567 0.429815
434 4 0.377234 0.364862 0.401991
120 2 0.489844 0.802509 0.415167
743 4 0.0315431 0.765096 0.0571088
233 4 0.390052 0.403617 0.462026
231 2 0.394087 0.410019 0.497285
1449 2 0.426057 0.440482 0.427161
1451 4 0.409618 0.409126 0.420303
1151 4 0.0605289 0.512578 0.386554
928 4 0.336913 0.551746 0.482068
927 2 0.314395 0.535408 0.459124
992 4 0.42041 0.587126 0.424449
183 2 0.485346 0.945885 0.241485
990 2 0.401777 0.610731 0.404547
1418 4 0.0933152 0.670449 0.432354
873 2 0.366258 0.666278 0.46447
874 4 0.375687 0.668303 0.429722
1417 4 0.0243151 0.649794 0.428598
1416 2 0.0588157 0.660122 0.430476
1073 4 0.0384693 0.640019 0.489664
1445 4 0.392271 0.890031 0.00550674
508 4 0.297447 0.763828 0.397384
1244 4 0.20364 0.748254 0.440846
1111 4 0.302464 0.691395 0.481473
1110 2 0.271369 0.703573 0.495081
1313 4 0.391644 0.697387 0.414165
234 2 0.100591 0.778807 0.486992
1242 2 0.2059 0.78399 0.445119
1243 4 0.208161 0.819726 0.449393
509 4 0.279917 0.82681 0.427841
507 2 0.288682 0.795318 0.412613
561 2 0.164299 0.276042 0.490058
1437 2 0.285453 0.603692 0.494517
1043 4 0.0224873 0.772916 0.340778
1489 4 0.312139 0.170461 0.0404351
1075 4 0.377133 0.304594 0.495069
1471 4 0.143606 0.120283 0.0105448
626 4 0.192532 0.219667 0.0151845
978 2 0.258717 0.00415428 0.535441
980 4 0.251242 0.00231367 0.500212
979 4 0.266192 0.0059942 0.570672
1329 2 0.430203 0.0487632 0.570819
1330 4 0.435943 0.0714495 0.543382
1008 2 0.160931 0.133868 0.526533
1009 4 0.171941 0.108208 0.549354
608 4 0.199694 0.101239 0.573732
1457 4 0.115888 0.368585 0.596704
483 2 0.131869 0.310303 0.55839
485 4 0.128848 0.275244 0.550507
563 4 0.155557 0.297978 0.517313
1085 4 0.0270433 0.754704 0.984451
1132 4 0.304353 0.274274 0.552928
1131 2 0.276879 0.275341 0.576262
1165 4 0.0891122 0.865516 0.999913
557 4 0.152622 0.740331 0.5157
484 4 0.13489 0.345363 0.566274
242 4 0.363399 0.406124 0.538561
240 2 0.341324 0.381472 0.552893
241 4 0.319249 0.356821 0.567225
691 4 0.302016 0.398299 0.618034
232 4 0.39812 0.416422 0.532543
1083 2 0.0121388 0.728537 0.964612
728 4 0.492236 0.948386 0.829218
556 4 0.139326 0.674208 0.541246
856 4 0.46615 0.578139 0.871927
819 2 0.340397 0.623538 0.553955
821 4 0.305868 0.633905 0.554773
999 2 0.00669457 0.570288 0.679474
820 4 0.374927 0.61317 0.553137
555 2 0.145975 0.707269 0.528473
292 4 0.254652 0.748797 0.515795
665 4 0.30209 0.645687 0.589118
1112 4 0.240273 0.715751 0.508689
84 2 0.492934 0.832593 0.597144
291 2 0.242637 0.782794 0.515325
293 4 0.230621 0.816792 0.514855
672 2 0.0111595 0.889076 0.520127
1352 4 0.464534 0.824836 0.515356
1350 2 0.436311 0.837346 0.533994
674 4 0.0257817 0.860037 0.504529
1286 4 0.131269 0.951792 0.5239
1284 2 0.157816 0.942617 0.546516
394 4 0.427878 0.934308 0.555353
393 2 0.42175 0.968163 0.566156
63 2 0.236256 0.0350509 0.622239
64 4 0.235259 0.0639328 0.64381
65 4 0.237254 0.00617034 0.600668
1331 4 0.424464 0.0260778 0.598258
48 3 0.423026 0.00121781 0.62862
50 3 0.456759 0.996739 0.670938
46 1 0.433941 0.0156466 0.656773
606 2 0.221827 0.106901 0.601633
607 4 0.243961 0.112564 0.629534
851 4 0.223978 0.125508 0.657942
1052 4 0.338886 0.162951 0.627859
895 4 0.375332 0.153532 0.625016
894 2 0.386383 0.121066 0.636161
896 4 0.397434 0.0885998 0.647306
1050 2 0.320828 0.178098 0.600567
1051 4 0.30277 0.193244 0.573275
226 4 0.494723 0.243405 0.54566
523 4 0.0809037 0.277143 0.650281
522 2 0.106707 0.274582 0.625221
524 4 0.132511 0.272021 0.60016
1157 4 0.231219 0.253234 0.618483
1155 2 0.198625 0.267614 0.612892
1156 4 0.166031 0.281994 0.607303
1133 4 0.249406 0.276408 0.599597
1438 4 0.263474 0.627309 0.510629
1455 2 0.0815291 0.372151 0.607057
1456 4 0.0471706 0.375716 0.617409
545 4 0.267553 0.975268 0.971832
1182 2 0.181332 0.353326 0.617457
1184 4 0.199157 0.360773 0.647907
1183 4 0.163507 0.345878 0.587007
690 2 0.309415 0.429787 0.633976
62 4 0.284194 0.469378 0.660088
692 4 0.316813 0.461276 0.649919
296 4 0.473089 0.37328 0.603507
714 2 0.378906 0.459028 0.663422
716 4 0.412477 0.471156 0.668549
752 4 0.435676 0.455766 0.589826
750 2 0.430014 0.46789 0.556339
491 4 0.218004 0.542363 0.628476
751 4 0.424354 0.480015 0.522852
107 4 0.0771097 0.594303 0.623032
105 2 0.108748 0.608697 0.613429
106 4 0.140386 0.623091 0.603826
959 4 0.15007 0.654835 0.599897
958 4 0.209046 0.615883 0.614261
957 2 0.179559 0.635359 0.607079
664 4 0.241443 0.632165 0.625733
663 2 0.271766 0.638926 0.607425
1145 4 0.366008 0.61532 0.588071
1143 2 0.396221 0.611595 0.607403
1144 4 0.426434 0.60787 0.626735
1283 4 0.144153 0.662467 0.640601
1281 2 0.120502 0.68966 0.641875
1282 4 0.0968509 0.716852 0.643149
252 2 0.396018 0.718621 0.633965
254 4 0.362588 0.712239 0.622042
779 4 0.477117 0.670752 0.626568
253 4 0.429448 0.725003 0.645887
544 4 0.255864 0.923086 0.923436
299 4 0.0533662 0.806627 0.679846
1512 2 0.325862 0.821524 0.628615
1513 4 0.353182 0.798213 0.625345
739 4 0.399248 0.833034 0.584149
738 2 0.414564 0.815482 0.611676
1351 4 0.408088 0.849857 0.552632
85 4 0.470485 0.809133 0.612832
619 4 0.0969971 0.912187 0.612983
618 2 0.107052 0.880461 0.626867
620 4 0.117106 0.848735 0.64075
614 4 0.491124 0.94442 0.593478
612 2 0.493049 0.911815 0.578192
133 4 0.0891914 0.984457 0.641655
132 2 0.0779256 0.957255 0.620832
134 4 0.0666607 0.930054 0.60001
1285 4 0.184363 0.933441 0.569132
1019 4 0.212631 0.915864 0.633629
1017 2 0.221253 0.944708 0.613775
1018 4 0.229874 0.97355 0.593922
395 4 0.415622 0.0020171 0.576959
1252 4 0.267872 0.0687228 0.683271
1251 2 0.278417 0.060649 0.716798
49 3 0.446739 0.045802 0.649935
364 4 0.327683 0.0410436 0.738083
1237 4 0.112582 0.155946 0.696556
1236 2 0.136137 0.149472 0.723082
1238 4 0.159693 0.142998 0.749608
1069 4 0.182817 0.132556 0.773274
849 2 0.250019 0.14198 0.676676
850 4 0.276061 0.158451 0.69541
164 4 0.358133 0.182339 0.708026
163 4 0.286407 0.189885 0.707684
162 2 0.32227 0.186112 0.707854
173 4 0.0997208 0.29737 0.676208
171 2 0.0898579 0.307897 0.709259
172 4 0.0799942 0.318424 0.742309
969 2 0.185379 0.357844 0.709355
971 4 0.179941 0.342256 0.741416
14 3 0.386835 0.208822 0.716364
11 1 0.405763 0.202023 0.743113
13 3 0.41858 0.17122 0.740508
970 4 0.190817 0.373431 0.677295
60 2 0.264791 0.454157 0.6864
61 4 0.245389 0.438936 0.71271
295 4 0.462294 0.376835 0.674728
294 2 0.467692 0.375058 0.639118
715 4 0.345335 0.4469 0.658297
1001 4 0.0272272 0.599736 0.682886
489 2 0.232423 0.564305 0.653195
490 4 0.246842 0.586247 0.677913
1213 4 0.358402 0.725177 0.71205
1212 2 0.345627 0.69901 0.733323
1214 4 0.332852 0.672843 0.754596
1087 4 0.411241 0.748187 0.674626
297 2 0.0738426 0.816147 0.651729
1215 2 0.165985 0.817854 0.740885
412 4 0.171858 0.840235 0.694406
1514 4 0.298543 0.844834 0.631884
740 4 0.429879 0.797929 0.639203
1088 4 0.447134 0.801516 0.707326
1086 2 0.429187 0.774852 0.690977
1493 4 0.465338 0.803676 0.736999
298 4 0.0943186 0.825665 0.623612
413 4 0.206865 0.897289 0.667555
411 2 0.189361 0.868762 0.680981
1216 4 0.170563 0.850109 0.725424
1275 2 0.0648761 0.00208405 0.704587
1277 4 0.0500939 0.999452 0.737373
1276 4 0.0796588 0.00471645 0.671801
99 2 0.4127 0.975852 0.748236
100 4 0.386551 0.00057937 0.750519
47 3 0.408349 0.0193195 0.677562
473 4 0.0438149 0.975197 0.760986
1070 4 0.235359 0.100016 0.736096
1253 4 0.288962 0.0525761 0.750323
793 4 0.318532 0.0216213 0.820133
363 2 0.330708 0.02033 0.767447
365 4 0.333734 0.999616 0.79681
868 4 0.41588 0.00656617 0.81111
461 4 0.00452536 0.129517 0.794345
770 4 0.478359 0.945784 0.993365
1117 4 0.280672 0.999168 0.999113
1068 2 0.209088 0.116286 0.754685
356 4 0.236209 0.0686807 0.809705
355 4 0.28732 0.0319647 0.774473
354 2 0.261764 0.0503231 0.792089
790 4 0.306512 0.138724 0.76962
1428 2 0.451899 0.180459 0.871287
543 2 0.261709 0.949177 0.947634
1429 4 0.473106 0.153504 0.860147
949 4 0.106004 0.331592 0.763739
948 2 0.108262 0.327256 0.799467
950 4 0.110521 0.32292 0.835194
12 3 0.386819 0.203493 0.770309
15 3 0.429985 0.224068 0.745597
1368 2 0.263877 0.385602 0.798451
1370 4 0.293588 0.365261 0.796468
317 4 0.298672 0.343377 0.827661
731 4 0.476556 0.310501 0.809514
944 4 0.204174 0.426113 0.816039
942 2 0.217864 0.456264 0.801758
943 4 0.231554 0.486414 0.787477
1369 4 0.234165 0.405941 0.800435
89 4 0.206353 0.508062 0.769096
87 2 0.219779 0.535221 0.788654
136 4 0.308739 0.517311 0.783898
135 2 0.325411 0.548901 0.788849
88 4 0.233205 0.562381 0.808213
137 4 0.342084 0.580492 0.793801
359 4 0.355168 0.535987 0.850318
1039 4 0.248928 0.619332 0.799734
1279 4 0.342624 0.648775 0.784854
529 4 0.108654 0.670025 0.801589
1038 2 0.241898 0.648004 0.820443
1040 4 0.234867 0.676675 0.841153
278 4 0.249932 0.706074 0.838977
267 2 0.48137 0.707749 0.840648
1217 4 0.161406 0.785599 0.756347
1223 4 0.392943 0.820552 0.84357
1491 2 0.488531 0.828151 0.749782
742 4 0.0534082 0.781634 0.990399
1447 4 0.108928 0.960034 0.498109
472 4 0.00377424 0.993678 0.818054
471 2 0.0237947 0.984437 0.78952
101 4 0.438849 0.951125 0.745954
727 4 0.436332 0.981557 0.797978
726 2 0.464284 0.964972 0.813599
451 4 0.0587474 0.0715602 0.84733
450 2 0.0741636 0.0640431 0.879051
865 4 0.0349326 0.0920698 0.858278
452 4 0.0895809 0.0565252 0.910772
366 2 0.186966 0.0473734 0.829649
368 4 0.155028 0.0562089 0.843872
367 4 0.218905 0.0385382 0.815426
386 4 0.354859 0.0156411 0.892942
867 2 0.399503 0.00960682 0.843093
869 4 0.383128 0.0126476 0.875077
864 2 0.00974805 0.116942 0.865166
303 2 0.267686 0.0669746 0.897038
21 1 0.307607 0.145245 0.901211
22 3 0.302265 0.112745 0.897229
24 3 0.292606 0.161807 0.8763
305 4 0.274491 0.0978836 0.879754
1430 4 0.430693 0.207415 0.882427
283 4 0.163027 0.275415 0.88923
1422 2 0.210674 0.183771 0.853756
1423 4 0.228314 0.194138 0.824059
1424 4 0.193034 0.173405 0.883451
791 4 0.287344 0.154062 0.837437
789 2 0.296928 0.146393 0.803529
1246 4 0.443713 0.247163 0.949411
1245 2 0.442731 0.257434 0.914858
282 2 0.130021 0.266792 0.87754
284 4 0.0970155 0.258169 0.865848
415 4 0.0775144 0.342193 0.838777
709 4 0.276695 0.312293 0.885789
316 4 0.270101 0.284298 0.857577
315 2 0.284386 0.313837 0.842618
708 2 0.278827 0.297881 0.918777
416 4 0.059321 0.350836 0.908031
414 2 0.0684179 0.346514 0.873404
871 4 0.0814222 0.329843 0.931283
1410 2 0.330335 0.392944 0.901558
1411 4 0.338822 0.371407 0.929208
730 4 0.464414 0.333012 0.876948
729 2 0.470485 0.321756 0.843231
590 4 0.0990815 0.51929 0.830704
1412 4 0.321847 0.414481 0.873908
1314 2 0.490165 0.476508 0.903647
588 2 0.0865448 0.508994 0.86291
589 4 0.0740089 0.498698 0.895117
1426 4 0.117157 0.573285 0.891944
1080 2 0.221268 0.55926 0.868915
1082 4 0.191789 0.55402 0.848816
357 2 0.382122 0.522037 0.830842
358 4 0.409075 0.508087 0.811365
855 2 0.446899 0.605477 0.85842
1278 2 0.365454 0.620872 0.785655
1348 4 0.373716 0.615841 0.898767
857 4 0.427647 0.632815 0.844913
530 4 0.13924 0.700438 0.859392
528 2 0.123947 0.685232 0.83049
342 2 0.185323 0.693304 0.890996
343 4 0.169884 0.680868 0.860873
276 2 0.279406 0.70572 0.859752
1280 4 0.388284 0.592969 0.786457
277 4 0.308879 0.705366 0.880528
10 3 0.308871 0.681675 0.907038
67 4 0.455364 0.738486 0.878763
66 2 0.424709 0.729083 0.895264
68 4 0.394054 0.71968 0.911766
8 3 0.358107 0.704012 0.91211
268 4 0.48986 0.728217 0.869098
481 4 0.336836 0.763568 0.944422
480 2 0.342619 0.793185 0.92468
482 4 0.348401 0.822803 0.904937
1221 2 0.363626 0.831931 0.861217
1222 4 0.334308 0.84331 0.878865
794 4 0.28347 0.984609 0.871147
792 2 0.301001 0.00311478 0.84564
1301 4 0.0941057 0.0298359 0.935141
1299 2 0.123306 0.0403919 0.953479
1300 4 0.152507 0.0509471 0.971818
1475 4 0.236567 0.987481 0.960266
1473 2 0.20928 0.00929259 0.969216
1474 4 0.181993 0.0311042 0.978166
304 4 0.260883 0.0360659 0.914322
123 2 0.301698 0.055591 0.966331
384 2 0.36971 0.0174515 0.925753
385 4 0.38456 0.0192623 0.958565
125 4 0.304547 0.0700968 0.999222
1254 2 0.101494 0.158314 0.954801
1255 4 0.104651 0.137271 0.983916
90 2 0.140433 0.889046 0.000887621
625 4 0.150309 0.181102 0.971234
92 4 0.166761 0.864572 0.00377307
23 3 0.340574 0.150956 0.900503
723 2 0.463132 0.639403 0.969006
1256 4 0.0983375 0.179356 0.925687
1173 2 0.0704922 0.22909 0.946754
624 2 0.171421 0.200384 0.993209
124 4 0.298849 0.0410846 0.933438
1175 4 0.0667878 0.199225 0.926886
593 4 0.0270043 0.821347 0.940668
25 3 0.295197 0.154791 0.930086
746 4 0.264948 0.178271 0.941081
744 2 0.278174 0.179617 0.974602
1247 4 0.441749 0.267706 0.880305
1174 4 0.0741965 0.258955 0.966622
710 4 0.280959 0.283469 0.951764
403 4 0.248402 0.267963 0.953474
1189 4 0.153542 0.398741 0.969405
872 4 0.136058 0.373862 0.947984
870 2 0.10874 0.351852 0.939634
725 4 0.448795 0.645933 0.936568
1159 4 0.318896 0.495463 0.987946
1158 2 0.335451 0.463463 0.989481
773 4 0.222609 0.560713 0.977352
402 2 0.237826 0.270046 0.987886
1425 2 0.124857 0.56313 0.925677
1081 4 0.250747 0.5645 0.889014
1427 4 0.132558 0.552974 0.959411
771 2 0.254213 0.559058 0.960065
1349 4 0.416225 0.609364 0.956669
1316 4 0.475384 0.474916 0.936501
170 4 0.182949 0.890058 0.946459
800 4 0.0193011 0.614858 0.970232
269 4 0.47288 0.687281 0.8122
1432 4 0.187064 0.792694 0.988793
798 2 0.0525859 0.609315 0.982954
1166 4 0.0672984 0.808068 0.962155
772 4 0.285817 0.557403 0.942778
587 4 0.331665 0.641163 0.970831
9 3 0.345433 0.658415 0.939765
1164 2 0.0782054 0.836792 0.981034
1347 2 0.394971 0.612603 0.927719
344 4 0.200763 0.70574 0.921118
1113 2 0.240654 0.708783 0.955875
1115 4 0.204707 0.706236 0.95718
6 1 0.333676 0.687373 0.9278
1114 4 0.276601 0.711331 0.954571
7 3 0.322714 0.705782 0.95313
777 2 0.494029 0.67801 0.595556
168 2 0.205848 0.903424 0.922018
169 4 0.228748 0.91679 0.897577
1160 4 0.352006 0.431463 0.991016
82 4 0.12313 0.600721 0.994579
799 4 0.0858708 0.603772 0.995675
91 4 0.114106 0.913519 0.998002
1010 4 0.149921 0.159528 0.503714
236 4 0.128171 0.767151 0.50709
1298 4 0.517127 0.0775515 0.0469373
796 4 0.596697 0.98434 0.0858709
890 4 0.903994 0.037973 0.0592581
888 2 0.870711 0.0408484 0.0456773
889 4 0.837429 0.0437228 0.0320969
682 4 0.525291 0.0557836 0.0796507
1389 2 0.566625 0.121609 0.0515561
1391 4 0.54016 0.100217 0.0396236
1390 4 0.593091 0.143001 0.0634876
581 4 0.893896 0.10304 0.0584266
579 2 0.884614 0.123712 0.0303733
628 4 0.621916 0.165376 0.0624116
627 2 0.639684 0.195489 0.0712381
812 4 0.929155 0.166934 0.0671715
810 2 0.952725 0.186298 0.0479397
811 4 0.976295 0.205662 0.0287082
72 2 0.777418 0.288135 0.0025047
74 4 0.774439 0.269322 0.0331253
900 2 0.647416 0.352603 0.00624481
901 4 0.630709 0.370302 0.0328529
764 4 0.636569 0.398345 0.0514975
762 2 0.666915 0.417817 0.0509082
1326 2 0.990598 0.271084 0.422872
351 2 0.981978 0.418109 0.361935
1231 4 0.633862 0.471646 0.0743402
1230 2 0.605118 0.468721 0.0959194
763 4 0.697262 0.43729 0.0503198
535 4 0.730031 0.45752 0.0453561
534 2 0.7658 0.458736 0.0497818
719 4 0.823709 0.459697 0.0180905
536 4 0.801568 0.459952 0.0542065
1305 2 0.860694 0.492451 0.0205813
1306 4 0.837339 0.49261 0.0480578
952 4 0.926441 0.380938 0.0324261
1357 4 0.635623 0.555914 0.0628183
1356 2 0.614943 0.571969 0.0380203
906 2 0.677884 0.574798 0.1131
658 4 0.859307 0.590911 0.0487612
238 4 0.532122 0.654685 0.00472557
1179 2 0.53708 0.583159 0.0760603
1260 2 0.999746 0.668774 0.288029
1181 4 0.55035 0.557442 0.0545452
907 4 0.653511 0.578384 0.0867652
657 2 0.869349 0.622471 0.0630288
659 4 0.87939 0.65403 0.0772963
353 4 0.963883 0.400481 0.336201
1507 4 0.781437 0.712863 0.0198984
148 4 0.937879 0.712775 0.00415362
147 2 0.93277 0.713913 0.0398329
149 4 0.927661 0.715051 0.0755122
1266 2 0.645281 0.817416 0.023712
1267 4 0.6374 0.843921 0.0468595
642 2 0.695851 0.964545 0.417397
421 4 0.810645 0.814957 0.0687475
795 2 0.5625 0.973833 0.0813363
797 4 0.528303 0.963328 0.076801
769 4 0.531582 0.950192 0.041837
408 2 0.655175 0.0533519 0.18074
157 4 0.88235 0.0319542 0.0932459
156 2 0.863274 0.0225458 0.122367
1319 4 0.753123 0.139913 0.181953
863 4 0.979671 0.161443 0.118208
629 4 0.657451 0.225603 0.0800651
1104 2 0.711118 0.250084 0.136459
1105 4 0.708682 0.224639 0.161896
757 4 0.692074 0.200361 0.142621
1206 2 0.814104 0.163733 0.149247
428 4 0.87233 0.189571 0.122597
1208 4 0.842889 0.185284 0.146517
426 2 0.905434 0.177549 0.114848
427 4 0.938538 0.165527 0.1071
1106 4 0.713553 0.27553 0.111024
963 2 0.542488 0.415398 0.150441
965 4 0.568318 0.390312 0.148477
1232 4 0.576374 0.465796 0.117498
964 4 0.516657 0.440484 0.152406
110 4 0.812908 0.0110912 0.042684
192 2 0.765127 0.486229 0.138513
652 4 0.851754 0.528943 0.15896
1307 4 0.884048 0.492292 0.993105
1180 4 0.523809 0.608877 0.0975762
908 4 0.702257 0.571213 0.139435
194 4 0.742326 0.504391 0.159742
651 2 0.862959 0.534973 0.125219
653 4 0.874164 0.541002 0.0914771
839 4 0.576822 0.68035 0.165984
1486 4 0.586028 0.643804 0.16327
1485 2 0.617068 0.628917 0.174014
1487 4 0.648108 0.614031 0.184758
57 2 0.724088 0.636014 0.130402
58 4 0.746131 0.611217 0.116273
671 4 0.937015 0.611292 0.150302
670 4 0.866976 0.603731 0.165766
669 2 0.901995 0.607511 0.158034
837 2 0.55443 0.668654 0.191718
35 3 0.692556 0.708838 0.157777
32 3 0.691908 0.707694 0.103967
31 1 0.711337 0.708889 0.130831
59 4 0.702043 0.660813 0.144528
33 3 0.731417 0.682116 0.130859
34 3 0.729631 0.736889 0.129716
326 4 0.751271 0.72608 0.154177
904 4 0.92629 0.646945 0.155941
760 4 0.958239 0.719073 0.0972774
854 4 0.540053 0.765556 0.124536
852 2 0.535193 0.800228 0.115899
324 2 0.777343 0.750645 0.150037
325 4 0.803416 0.775212 0.145898
422 4 0.816182 0.813781 0.140648
420 2 0.813414 0.814369 0.104698
211 4 0.92703 0.811058 0.10178
1061 4 0.514788 0.857117 0.12958
853 4 0.530335 0.834901 0.107261
410 4 0.651555 0.0418844 0.146742
575 4 0.779176 0.96859 0.186071
573 2 0.809423 0.973645 0.167099
574 4 0.83967 0.9787 0.148126
158 4 0.844198 0.0131371 0.151486
409 4 0.658795 0.0648182 0.214737
1291 4 0.700838 0.0847449 0.245285
1318 4 0.720549 0.0846471 0.214913
1317 2 0.736836 0.11228 0.198433
758 4 0.745397 0.151804 0.141824
1207 4 0.785318 0.142183 0.151977
756 2 0.718735 0.176083 0.142223
121 4 0.513692 0.779611 0.400769
882 2 0.669365 0.272784 0.245229
884 4 0.684969 0.299287 0.226401
347 4 0.69048 0.331184 0.209357
1121 4 0.721995 0.367587 0.149684
346 4 0.718108 0.396237 0.223726
1058 4 0.711192 0.425991 0.203309