ITEM: TIMESTEP
1625500
ITEM: NUMBER OF ATOMS
1520
ITEM: BOX BOUNDS pp pp pp
-6.9326749999999997e+00 6.9326749999999997e+00
-6.9326749999999997e+00 6.9326749999999997e+00
-6.9326749999999997e+00 6.9326749999999997e+00
ITEM: ATOMS id type xs ys zs
30 3 0.236065 0.0590717 0.0273979
26 1 0.204223 0.0670945 0.0266207
28 3 0.18921 0.0569827 0.0547679
502 4 0.373117 0.0285191 0.0475249
501 2 0.352984 0.00915147 0.0703273
1319 4 0.060378 0.123143 0.0526644
1317 2 0.0858089 0.111822 0.0755893
44 3 0.0766393 0.134711 0.0179371
42 3 0.111129 0.175064 0.00695617
27 3 0.201315 0.100051 0.0241576
1459 4 0.2217 0.119198 0.049112
1458 2 0.225944 0.123328 0.0846835
45 3 0.0593841 0.186186 0.016758
549 2 0.377691 0.226918 0.0338583
550 4 0.371133 0.209836 0.0649325
551 4 0.384248 0.243999 0.00278404
495 2 0.118689 0.279969 0.0489611
497 4 0.135211 0.268124 0.019176
1020 2 0.197755 0.260352 0.0146215
1022 4 0.163855 0.250494 0.00727357
1021 4 0.231655 0.27021 0.0219701
1302 2 0.0778907 0.411535 0.00968812
1303 4 0.0997238 0.417753 0.0377069
676 4 0.150185 0.358061 0.0919559
1216 4 0.323114 0.349577 0.0653092
1215 2 0.343626 0.377457 0.0754277
1217 4 0.364137 0.405337 0.0855462
488 4 0.0584399 0.495157 0.0447186
486 2 0.0872813 0.477857 0.057731
487 4 0.116122 0.460557 0.0707438
716 4 0.150177 0.461265 0.0821311
4 3 0.251091 0.461464 0.0368146
714 2 0.181187 0.467956 0.0649857
715 4 0.2122 0.474647 0.0478405
3 3 0.274603 0.470303 0.0855336
2 3 0.224208 0.487768 0.0758516
1 1 0.254104 0.482945 0.0622983
5 3 0.265817 0.511645 0.0514389
402 2 0.412381 0.427006 0.0595772
404 4 0.447708 0.423412 0.0532943
639 2 0.199897 0.530185 0.0105699
641 4 0.234515 0.52781 0.000755191
606 2 0.292179 0.552348 0.0756158
607 4 0.298406 0.517135 0.0709689
868 4 0.254015 0.559258 0.99927
608 4 0.285952 0.587563 0.0802627
472 4 0.44675 0.597987 0.00663915
370 4 0.465963 0.627351 0.00490549
1010 4 0.0212477 0.705345 0.068601
1008 2 0.0141943 0.70342 0.0332886
1067 4 0.0490413 0.727349 0.0786635
453 2 0.235027 0.710322 0.0608983
455 4 0.200163 0.711784 0.0518017
454 4 0.269891 0.70886 0.069994
1180 4 0.326725 0.806516 0.00836428
1457 4 0.308327 0.819969 0.0486212
995 4 0.285232 0.807897 0.0763858
1502 4 0.400356 0.817908 0.078304
1500 2 0.433406 0.825654 0.0661342
1501 4 0.466456 0.833398 0.0539647
711 2 0.108215 0.881977 0.00373738
712 4 0.131811 0.904416 0.019234
988 4 0.237687 0.863131 0.00189335
1455 2 0.285743 0.831647 0.0230477
611 4 0.473407 0.865226 0.0481403
626 4 0.0674452 0.96612 0.0544314
1283 4 0.157459 0.992483 0.0235275
1282 4 0.116487 0.936326 0.0427491
1281 2 0.136972 0.964405 0.0331382
409 4 0.117353 0.947329 0.0764612
928 4 0.188224 0.977813 0.0434535
927 2 0.223563 0.977442 0.0506318
929 4 0.2589 0.977071 0.0578101
1255 4 0.250077 0.985544 0.0911815
1149 2 0.442241 0.969547 0.0448559
1150 4 0.435666 0.966392 0.0801717
1151 4 0.448817 0.972704 0.00954019
360 2 0.13473 0.0492966 0.112654
361 4 0.102969 0.0631426 0.102657
362 4 0.166491 0.0354509 0.122653
1136 4 0.177559 0.0108496 0.147867
1256 4 0.313997 0.0078349 0.11606
503 4 0.33285 0.989784 0.0931297
943 4 0.304615 0.0741452 0.119327
1084 4 0.401069 0.044819 0.151256
1083 2 0.416698 0.0215015 0.128619
1318 4 0.111239 0.1005 0.0985139
1315 4 0.375675 0.870765 0.00571962
151 4 0.0780632 0.965366 0.479238
194 4 0.106967 0.159011 0.111838
1460 4 0.230188 0.127457 0.120256
944 4 0.265192 0.127022 0.148508
942 2 0.284904 0.100583 0.133917
1477 4 0.380013 0.142673 0.134471
1476 2 0.406084 0.120368 0.123369
1478 4 0.432154 0.0980629 0.112269
685 4 0.465242 0.112322 0.121302
684 2 0.488151 0.137037 0.134137
192 2 0.0815002 0.174599 0.132057
193 4 0.0560329 0.190187 0.152277
565 4 0.195464 0.249949 0.156408
105 2 0.383173 0.199531 0.120152
107 4 0.368731 0.197327 0.15312
106 4 0.397616 0.201736 0.0871828
908 4 0.354994 0.230351 0.157111
496 4 0.102167 0.291814 0.0787457
1103 4 0.120164 0.29451 0.111479
1101 2 0.10253 0.323587 0.123477
566 4 0.156224 0.308 0.139324
564 2 0.175844 0.278975 0.147867
906 2 0.349067 0.264308 0.146518
907 4 0.343141 0.298265 0.135925
1189 4 0.49209 0.262548 0.147742
1102 4 0.0848946 0.352664 0.135475
1423 4 0.0617905 0.386891 0.171351
1422 2 0.0277063 0.377107 0.164789
675 2 0.182978 0.372568 0.095781
677 4 0.21577 0.387076 0.0996055
375 2 0.091497 0.461145 0.139945
376 4 0.0806652 0.462702 0.174305
478 4 0.0234104 0.4946 0.115308
477 2 0.00287436 0.467313 0.126886
737 4 0.074399 0.494105 0.185798
377 4 0.102329 0.459588 0.105584
186 2 0.283028 0.485324 0.131699
403 4 0.377054 0.4306 0.0658599
187 4 0.275101 0.500775 0.100094
539 4 0.289277 0.546663 0.175265
538 4 0.264408 0.61209 0.157872
1079 4 0.192959 0.627222 0.132715
537 2 0.276842 0.579377 0.166569
1000 4 0.276256 0.648022 0.155988
911 4 0.344888 0.643002 0.0771477
909 2 0.375902 0.637379 0.0946664
910 4 0.406916 0.631757 0.112185
1207 4 0.425201 0.662874 0.113213
1206 2 0.449251 0.643868 0.132207
1208 4 0.473302 0.624862 0.1512
1065 2 0.0418769 0.747278 0.107851
999 2 0.270236 0.672591 0.130287
1001 4 0.264215 0.69716 0.104587
1415 4 0.408502 0.689445 0.186327
1066 4 0.0347134 0.767207 0.137039
793 4 0.0697117 0.779007 0.152125
792 2 0.0929678 0.8055 0.14453
794 4 0.116224 0.831993 0.136934
528 2 0.197471 0.810049 0.152975
530 4 0.232035 0.809498 0.142705
993 2 0.262728 0.823347 0.0999502
994 4 0.240223 0.838797 0.123514
1512 2 0.479218 0.874759 0.155698
625 4 0.0556497 0.996469 0.118785
624 2 0.0615478 0.981295 0.0866084
408 2 0.128856 0.932462 0.107236
410 4 0.14036 0.917595 0.138011
1254 2 0.282037 0.996689 0.10362
650 4 0.493504 0.939084 0.154961
649 4 0.462552 0.997535 0.126202
1085 4 0.432327 0.998183 0.105982
648 2 0.478029 0.968309 0.140582
1187 4 0.0568971 0.0782077 0.207809
342 2 0.118702 0.0737925 0.242546
1134 2 0.182641 0.0124817 0.183532
1135 4 0.187722 0.0141138 0.219196
1054 4 0.217161 0.0290345 0.231604
1053 2 0.245958 0.00823146 0.237797
103 4 0.0172931 0.158914 0.174291
1186 4 0.0438861 0.148715 0.199988
1185 2 0.0503918 0.113461 0.203898
344 4 0.0916103 0.0846823 0.221384
1012 4 0.244126 0.157748 0.215736
1232 4 0.442147 0.149477 0.227689
1230 2 0.434747 0.116439 0.240104
670 4 0.0393172 0.237931 0.211694
669 2 0.0250719 0.205021 0.215496
671 4 0.0108265 0.172112 0.219298
1011 2 0.218188 0.166111 0.239351
401 4 0.168256 0.303446 0.262389
399 2 0.166855 0.308335 0.226688
191 4 0.386976 0.350179 0.216601
985 4 0.203437 0.933016 0.379418
400 4 0.165455 0.313223 0.190987
190 4 0.316251 0.339016 0.207949
189 2 0.351613 0.344598 0.212275
628 4 0.049405 0.470546 0.265712
627 2 0.0779962 0.48546 0.24957
629 4 0.106588 0.500373 0.233429
188 4 0.290957 0.469873 0.163304
1272 2 0.329877 0.497973 0.199706
1273 4 0.303356 0.486166 0.2211
735 2 0.0783322 0.529322 0.179112
736 4 0.0822664 0.564539 0.172425
1274 4 0.356397 0.50978 0.178314
727 4 0.405553 0.562866 0.252834
1042 4 0.469874 0.556173 0.197402
728 4 0.437496 0.542517 0.191456
726 2 0.421525 0.552692 0.222144
153 2 0.0183137 0.643173 0.17046
155 4 0.000167424 0.613008 0.178284
1078 4 0.1953 0.623104 0.204681
1077 2 0.194129 0.625163 0.168698
251 4 0.326336 0.663919 0.188011
154 4 0.0364603 0.673338 0.162635
571 4 0.0244603 0.701761 0.178826
471 2 0.41075 0.597057 0.00475464
250 4 0.381482 0.708751 0.175731
249 2 0.353909 0.686336 0.181871
1413 2 0.418186 0.724149 0.184824
134 4 0.142158 0.828097 0.213947
529 4 0.162908 0.810602 0.163244
1372 4 0.338695 0.797938 0.202082
1414 4 0.427872 0.758852 0.183323
1345 4 0.455003 0.778175 0.199538
1344 2 0.487783 0.766114 0.208507
133 4 0.188444 0.875671 0.242158
132 2 0.1653 0.851883 0.228053
1371 2 0.362491 0.824092 0.195007
1373 4 0.386288 0.850247 0.187932
1037 4 0.395235 0.885086 0.19328
1513 4 0.48121 0.865925 0.190603
1035 2 0.422288 0.907714 0.200795
789 2 0.0757529 0.985666 0.241227
157 4 0.162144 0.928135 0.168147
791 4 0.0990635 0.9585 0.236859
158 4 0.103729 0.934398 0.209982
156 2 0.132937 0.931266 0.189065
1055 4 0.274754 0.987429 0.243991
1036 4 0.449342 0.930342 0.20831
343 4 0.145795 0.0629031 0.263708
281 4 0.129746 0.0352451 0.279371
279 2 0.139905 0.0200337 0.310449
1339 4 0.218639 0.0597511 0.249761
1231 4 0.427347 0.083401 0.25252
681 2 0.441929 0.0202025 0.261442
682 4 0.421782 0.0500737 0.262928
1340 4 0.183317 0.122516 0.253602
1338 2 0.200978 0.0911329 0.251681
126 2 0.494409 0.173101 0.325875
1094 4 0.0796245 0.233894 0.330592
1093 4 0.013299 0.217033 0.307827
1092 2 0.0464618 0.225463 0.31921
1013 4 0.19225 0.174475 0.262966
128 4 0.478245 0.188553 0.297584
82 4 0.193702 0.283091 0.33412
83 4 0.205149 0.313423 0.269694
81 2 0.199425 0.298257 0.301907
647 4 0.215771 0.366772 0.368919
605 4 0.229534 0.470746 0.32015
603 2 0.254647 0.489217 0.338277
1107 2 0.0531234 0.550343 0.288926
1109 4 0.0236025 0.543756 0.269293
1108 4 0.0826459 0.55693 0.308559
859 4 0.282644 0.528346 0.334071
858 2 0.317731 0.535932 0.337494
865 4 0.402101 0.560461 0.290501
866 4 0.375892 0.515784 0.340688
864 2 0.388997 0.538122 0.315595
53 4 0.0927362 0.595482 0.280873
52 4 0.125305 0.659412 0.273527
51 2 0.109021 0.627447 0.2772
1175 4 0.201699 0.620941 0.237548
1173 2 0.236166 0.630186 0.242737
923 4 0.289642 0.622684 0.274361
921 2 0.297342 0.648954 0.297834
1174 4 0.270634 0.639431 0.247927
922 4 0.305042 0.675223 0.321308
542 4 0.320404 0.704831 0.310023
1235 4 0.100295 0.831682 0.302465
809 4 0.131856 0.846617 0.299091
710 4 0.342946 0.793868 0.302693
1233 2 0.100023 0.847267 0.269946
1234 4 0.0997514 0.862852 0.237428
708 2 0.332265 0.819373 0.279544
709 4 0.321584 0.844877 0.256396
790 4 0.052442 0.0128304 0.245596
956 4 0.303477 0.976888 0.230462
954 2 0.309177 0.953821 0.257587
955 4 0.314879 0.930753 0.284713
492 2 0.382103 0.942597 0.300079
493 4 0.34755 0.949703 0.292595
1331 4 0.474901 0.956572 0.256104
494 4 0.416657 0.935492 0.307562
1330 4 0.45045 0.920524 0.313587
1329 2 0.462676 0.938547 0.284845
683 4 0.462076 0.990331 0.259958
280 4 0.150064 0.00482313 0.341527
1440 2 0.196345 0.0396123 0.360769
1442 4 0.206028 0.0690425 0.379223
1441 4 0.186663 0.0101825 0.342316
546 2 0.492527 0.0268748 0.410358
547 4 0.487982 0.0402752 0.377189
754 4 0.00527232 0.112522 0.401527
415 4 0.127615 0.139001 0.395964
414 2 0.155663 0.116443 0.39376
416 4 0.18371 0.0938845 0.391556
884 4 0.0839869 0.219958 0.36264
883 4 0.133292 0.174543 0.389252
882 2 0.108639 0.197251 0.375946
351 2 0.270359 0.177499 0.399222
352 4 0.240025 0.159981 0.390659
353 4 0.300694 0.195018 0.407784
871 4 0.0868364 0.247129 0.429533
68 4 0.224053 0.266123 0.349217
66 2 0.257566 0.279412 0.350044
67 4 0.291079 0.292702 0.35087
646 4 0.149313 0.349759 0.346657
645 2 0.182543 0.358266 0.357788
748 4 0.19358 0.490636 0.416381
772 4 0.455389 0.504406 0.386806
771 2 0.48594 0.486915 0.394626
195 2 0.152951 0.566678 0.328545
196 4 0.183087 0.569557 0.348141
890 4 0.222173 0.568875 0.360963
888 2 0.227453 0.545745 0.388121
604 4 0.27976 0.507687 0.356405
889 4 0.232732 0.522614 0.415279
860 4 0.352819 0.543518 0.340917
197 4 0.122814 0.563798 0.30895
339 2 0.494153 0.641673 0.391414
1060 4 0.161077 0.736051 0.376751
1059 2 0.157162 0.709504 0.400842
540 2 0.341092 0.725798 0.330827
541 4 0.361781 0.746764 0.351631
544 4 0.347983 0.729471 0.38048
1241 4 0.319238 0.795879 0.363396
808 4 0.152738 0.842162 0.36798
807 2 0.142297 0.844389 0.333536
1291 4 0.136908 0.860226 0.390112
1239 2 0.320559 0.830047 0.374851
1240 4 0.321879 0.864215 0.386306
623 4 0.0527767 0.927609 0.353122
621 2 0.0600862 0.956631 0.373239
622 4 0.0673963 0.985652 0.393357
986 4 0.185555 0.999033 0.402301
984 2 0.194496 0.966025 0.390859
1514 4 0.477223 0.883593 0.120793
1368 2 0.212984 0.0752112 0.486948
1370 4 0.230372 0.0436864 0.489006
393 2 0.0587105 0.146923 0.469458
395 4 0.0282041 0.151873 0.48804
847 4 0.121891 0.126046 0.450747
846 2 0.143863 0.120226 0.478742
394 4 0.0892176 0.141974 0.450876
1369 4 0.195595 0.106735 0.484889
1394 4 0.000961275 0.567142 0.483763
870 2 0.0542543 0.242776 0.414704
872 4 0.0216731 0.238423 0.399875
609 2 0.489567 0.877167 0.0780844
1420 4 0.355775 0.22245 0.447802
1419 2 0.369085 0.214157 0.480275
1306 4 0.116969 0.299414 0.424145
1305 2 0.124394 0.329906 0.441908
767 4 0.290669 0.329107 0.451369
765 2 0.263578 0.32449 0.474719
38 3 0.0520244 0.405369 0.478234
1307 4 0.131819 0.360398 0.45967
974 4 0.0663682 0.440119 0.486661
972 2 0.0512749 0.467785 0.469132
749 4 0.126045 0.465694 0.420697
747 2 0.159813 0.478165 0.418538
1148 4 0.210731 0.470531 0.443552
1146 2 0.246427 0.466844 0.4471
1147 4 0.282123 0.463158 0.450648
1393 4 0.0152716 0.496471 0.482206
973 4 0.0361807 0.495449 0.451604
1392 2 0.00811619 0.531807 0.482985
341 4 0.47271 0.659992 0.413888
620 4 0.457402 0.676841 0.45015
618 2 0.46229 0.649771 0.473468
1051 4 0.164945 0.696292 0.454316
1050 2 0.13408 0.688029 0.471034
1061 4 0.153246 0.682957 0.424931
543 2 0.356946 0.721378 0.414459
180 2 0.340671 0.718318 0.498993
181 4 0.333166 0.711625 0.464362
545 4 0.365909 0.713284 0.448438
1292 4 0.117538 0.805414 0.432797
1401 2 0.226897 0.781236 0.438212
1403 4 0.197477 0.798207 0.450331
1402 4 0.256317 0.764265 0.426093
1290 2 0.127224 0.832819 0.411454
41 1 0.0799166 0.164512 0.0030669
933 2 0.124594 0.585317 0.00652922
934 4 0.154718 0.565881 0.010421
640 4 0.165279 0.53256 0.0203838
1041 2 0.496278 0.578455 0.187076
548 4 0.497073 0.0134753 0.443527
766 4 0.236487 0.319873 0.498068
619 4 0.467178 0.622701 0.496786
1052 4 0.103215 0.679767 0.487751
932 4 0.432098 0.799603 0.482496
935 4 0.0944702 0.604754 0.00263792
473 4 0.37475 0.596127 0.00287092
817 4 0.0735927 0.999818 0.595707
233 4 0.190823 0.0253497 0.554737
632 4 0.487719 0.0827226 0.533434
48 3 0.00648707 0.143169 0.519773
1472 4 0.378169 0.127274 0.564918
1470 2 0.362971 0.123636 0.597418
355 4 0.355055 0.250144 0.556906
354 2 0.386399 0.245172 0.574032
839 4 0.498131 0.732816 0.942484
39 3 0.0680482 0.374486 0.520589
36 1 0.0557147 0.404231 0.511475
385 4 0.202915 0.402818 0.532451
97 4 0.00831236 0.437553 0.512226
40 3 0.0267739 0.409334 0.526146
37 3 0.076987 0.427951 0.520723
386 4 0.157481 0.402357 0.588462
384 2 0.180199 0.402588 0.560457
1421 4 0.382395 0.205863 0.512748
295 4 0.444626 0.573846 0.583386
304 4 0.0815198 0.589146 0.546688
1450 4 0.104984 0.659642 0.518035
303 2 0.109287 0.59304 0.569364
350 4 0.222119 0.616619 0.579199
348 2 0.245681 0.590623 0.587534
349 4 0.269243 0.564628 0.595868
439 4 0.373493 0.637651 0.567984
1183 4 0.484601 0.351456 0.925265
296 4 0.454395 0.596809 0.515718
294 2 0.44951 0.585328 0.549552
1449 2 0.0985512 0.667761 0.552576
569 4 0.0393608 0.753677 0.508214
418 4 0.00154481 0.25718 0.568761
438 2 0.37381 0.673134 0.561563
440 4 0.374126 0.708618 0.555143
182 4 0.348177 0.725011 0.533624
567 2 0.0627222 0.780696 0.513177
568 4 0.0860832 0.807715 0.518138
532 4 0.490276 0.239874 0.670296
1038 2 0.467336 0.758244 0.50998
1040 4 0.4351 0.769131 0.521925
930 2 0.420617 0.825208 0.505143
56 4 0.0128151 0.838085 0.573306
931 4 0.409134 0.850815 0.52779
212 4 0.413794 0.883352 0.552697
210 2 0.443109 0.902043 0.562279
960 2 0.457451 0.992572 0.94843
150 2 0.0784746 0.971204 0.514821
152 4 0.0788873 0.977043 0.550405
211 4 0.472424 0.920732 0.57186
816 2 0.078459 0.0354746 0.598007
818 4 0.0833265 0.0711323 0.600306
231 2 0.19349 0.0427638 0.586202
232 4 0.196158 0.0601783 0.617667
514 4 0.237707 0.0507335 0.669723
513 2 0.209305 0.0285309 0.668825
919 4 0.335277 0.0428901 0.669189
918 2 0.361813 0.0341778 0.646378
920 4 0.38835 0.0254654 0.623568
1471 4 0.347774 0.119999 0.629917
1075 4 0.395892 0.142729 0.634138
275 4 0.365308 0.157778 0.63622
1074 2 0.431623 0.137876 0.634541
1076 4 0.467354 0.133023 0.634943
318 2 0.0431029 0.232614 0.651871
283 4 0.164827 0.18062 0.567745
282 2 0.191704 0.197935 0.584426
284 4 0.218581 0.21525 0.601107
412 4 0.235748 0.236301 0.631283
464 4 0.221694 0.219593 0.663605
321 2 0.313039 0.246408 0.639013
273 2 0.371076 0.193356 0.637412
274 4 0.376844 0.228934 0.638603
323 4 0.347644 0.252921 0.646795
531 2 0.465625 0.243684 0.644253
533 4 0.440974 0.247494 0.618211
319 4 0.0364599 0.214957 0.621138
311 4 0.111442 0.249371 0.653709
411 2 0.225789 0.268303 0.617974
413 4 0.21583 0.300304 0.604665
322 4 0.278435 0.239894 0.63123
1268 4 0.379094 0.290456 0.647654
1266 2 0.362221 0.317769 0.664077
356 4 0.417743 0.240201 0.591157
1309 4 0.278184 0.422978 0.579959
443 4 0.438191 0.416066 0.660117
59 4 0.42316 0.382521 0.641452
57 2 0.439319 0.354474 0.657349
1510 4 0.243094 0.464937 0.616164
1509 2 0.247621 0.499594 0.625041
1308 2 0.313054 0.424412 0.589035
1310 4 0.347926 0.425847 0.598113
380 4 0.344369 0.460372 0.614366
378 2 0.344241 0.48769 0.637906
441 2 0.441481 0.449518 0.673178
305 4 0.137055 0.596933 0.592041
1313 4 0.102261 0.586338 0.698616
1511 4 0.252147 0.53425 0.633918
379 4 0.344112 0.515007 0.661447
615 2 0.494652 0.547672 0.602409
616 4 0.463893 0.561221 0.615476
136 4 0.0995851 0.674767 0.625292
643 4 0.252367 0.561598 0.648988
638 4 0.494454 0.605718 0.664894
135 2 0.0871262 0.674013 0.659125
1451 4 0.0921182 0.675879 0.587118
1498 4 0.300825 0.766572 0.605459
1497 2 0.324215 0.770294 0.632651
1499 4 0.347605 0.774015 0.659844
335 4 0.144408 0.929418 0.631021
833 4 0.205178 0.857456 0.672886
913 4 0.31408 0.865413 0.613252
912 2 0.313696 0.900907 0.61961
333 2 0.146911 0.961989 0.646295
334 4 0.149413 0.99456 0.661568
515 4 0.180905 0.00632801 0.667928
1388 4 0.301703 0.972171 0.636988
914 4 0.313314 0.936404 0.625969
1129 4 0.408875 0.969988 0.597091
1130 4 0.463257 0.986679 0.641427
1128 2 0.436066 0.978334 0.619259
468 2 0.0206742 0.0836895 0.752145
469 4 0.025116 0.0618423 0.723802
672 2 0.306615 0.0342707 0.712916
674 4 0.307959 0.0215856 0.679187
673 4 0.305271 0.046956 0.746645
320 4 0.0497463 0.250271 0.682604
310 4 0.139704 0.190997 0.685258
309 2 0.125573 0.220184 0.669483
462 2 0.23507 0.209342 0.695487
463 4 0.248446 0.199091 0.727368
798 2 0.48449 0.230113 0.724543
799 4 0.472678 0.203173 0.745403
1267 4 0.345349 0.345083 0.680499
58 4 0.455481 0.326429 0.673245
60 2 0.0209939 0.420448 0.69112
61 4 0.0168064 0.407029 0.657911
1253 4 0.495165 0.384777 0.726848
265 4 0.459666 0.37774 0.72015
62 4 0.025181 0.433865 0.724329
1127 4 0.073928 0.451363 0.705531
1125 2 0.107055 0.462416 0.696537
1126 4 0.140182 0.473468 0.687543
259 4 0.436887 0.516315 0.714075
442 4 0.44477 0.48297 0.686239
1090 4 0.129077 0.49942 0.711585
1089 2 0.143474 0.517429 0.739313
829 4 0.178588 0.593931 0.738045
234 2 0.333815 0.540413 0.72153
235 4 0.348217 0.539117 0.688494
258 2 0.432228 0.547934 0.730778
260 4 0.427569 0.579553 0.747478
451 4 0.0411419 0.66858 0.670967
1311 2 0.134841 0.600903 0.703794
1312 4 0.167421 0.615469 0.708972
642 2 0.238658 0.575382 0.679359
644 4 0.224948 0.589167 0.709731
20 3 0.273992 0.631262 0.70719
16 1 0.29195 0.658409 0.711594
19 3 0.320042 0.656576 0.6935
17 3 0.300006 0.661098 0.743666
905 4 0.411381 0.59693 0.770147
1397 4 0.416686 0.659063 0.687813
1395 2 0.392694 0.646804 0.663842
636 2 0.463958 0.624824 0.662578
637 4 0.433463 0.64393 0.660261
137 4 0.0746671 0.673259 0.692957
450 2 0.015709 0.683813 0.691497
18 3 0.274291 0.685367 0.702579
1396 4 0.368704 0.634545 0.639872
850 4 0.394359 0.811187 0.692494
831 2 0.228809 0.883914 0.679363
429 2 0.290137 0.901979 0.743173
849 2 0.39309 0.84691 0.687731
851 4 0.391821 0.882633 0.682968
221 4 0.468813 0.878964 0.698031
219 2 0.495807 0.863895 0.716596
337 4 0.0725865 0.988714 0.716193
336 2 0.0986691 0.98662 0.741007
832 4 0.252441 0.910371 0.68584
1386 2 0.290966 0.961493 0.669717
431 4 0.268445 0.92088 0.721433
1387 4 0.28023 0.950813 0.702445
1228 4 0.0797832 0.0475549 0.790665
1227 2 0.100248 0.0690212 0.811177
959 4 0.342036 0.0761197 0.822636
702 2 0.404284 0.0676993 0.814431
703 4 0.369664 0.0716313 0.805138
704 4 0.438905 0.063766 0.823723
470 4 0.0162332 0.105537 0.78049
1080 2 0.0679693 0.142289 0.797072
1081 4 0.0380757 0.123909 0.805378
1082 4 0.0978627 0.160669 0.788765
491 4 0.00645607 0.201213 0.744933
489 2 0.032801 0.210305 0.767817
490 4 0.059146 0.219397 0.7907
1007 4 0.0340745 0.222791 0.812637
276 2 0.389298 0.22284 0.818246
277 4 0.372908 0.190864 0.815199
475 4 0.473696 0.176979 0.770757
1489 4 0.0543729 0.329462 0.802007
1106 4 0.373749 0.327316 0.818884
1490 4 0.0629978 0.401043 0.80384
1488 2 0.058685 0.365252 0.802923
848 4 0.165836 0.114406 0.506737
1210 4 0.00844292 0.397962 0.734127
505 4 0.215579 0.412532 0.771794
506 4 0.176766 0.351861 0.767999
504 2 0.196173 0.382197 0.769896
1314 2 0.393281 0.863325 0.97514
264 2 0.462703 0.368634 0.75491
266 4 0.465738 0.359528 0.789672
707 4 0.454695 0.391054 0.800813
164 4 0.245331 0.456573 0.836254
706 4 0.417129 0.444946 0.830581
705 2 0.435912 0.418 0.815697
1091 4 0.15787 0.535438 0.767041
271 4 0.201977 0.503787 0.814086
270 2 0.207351 0.537843 0.824657
272 4 0.21273 0.571911 0.835229
236 4 0.319414 0.54171 0.754566
826 4 0.310184 0.555613 0.791458
825 2 0.280105 0.568359 0.806732
1120 4 0.00126533 0.646227 0.824768
827 4 0.250013 0.581092 0.822013
828 2 0.198329 0.591524 0.768127
830 4 0.218075 0.589115 0.798217
667 4 0.223353 0.611015 0.832094
666 2 0.203485 0.640739 0.827274
116 4 0.249392 0.616093 0.801253
114 2 0.265747 0.644888 0.787
903 2 0.417093 0.632336 0.773908
1141 4 0.0844245 0.661316 0.754104
1140 2 0.107295 0.681789 0.773032
1142 4 0.130164 0.702261 0.791959
899 4 0.115088 0.70353 0.821665
1484 4 0.171106 0.692678 0.795553
668 4 0.183616 0.670446 0.822467
1482 2 0.195719 0.716652 0.784603
1483 4 0.220331 0.740625 0.773653
115 4 0.282104 0.673688 0.77274
810 2 0.251514 0.763322 0.825645
904 4 0.422803 0.667743 0.777671
1454 4 0.391414 0.686866 0.78427
1452 2 0.410824 0.70426 0.809192
812 4 0.224489 0.74551 0.809748
1161 2 0.213139 0.833153 0.805829
1163 4 0.178546 0.823029 0.806959
835 4 0.162887 0.867621 0.756342
1162 4 0.247731 0.843278 0.804699
836 4 0.201008 0.92865 0.761213
834 2 0.181947 0.898135 0.758778
430 4 0.31183 0.883077 0.764912
308 4 0.264141 0.921067 0.8087
1300 4 0.40835 0.85338 0.850201
1316 4 0.410887 0.855884 0.944561
1157 4 0.0223952 0.96222 0.82816
444 2 0.0872448 0.970502 0.839406
446 4 0.0562594 0.971146 0.82097
338 4 0.124751 0.984526 0.765821
1246 4 0.361141 0.9524 0.858338
1229 4 0.120715 0.0904876 0.831689
1357 4 0.432133 0.0632236 0.857677
1356 2 0.445706 0.0336093 0.873142
1358 4 0.459278 0.00399424 0.888606
969 2 0.15467 0.118615 0.884227
970 4 0.125656 0.104167 0.900032
165 2 0.238272 0.099661 0.884257
167 4 0.203817 0.110096 0.882158
971 4 0.183685 0.133064 0.868422
958 4 0.313386 0.0999792 0.884373
957 2 0.327712 0.0880492 0.853504
166 4 0.272726 0.0892258 0.886356
1005 2 0.0285166 0.235797 0.845809
1006 4 0.0229584 0.248802 0.87898
175 4 0.142303 0.197531 0.912804
576 2 0.216166 0.191589 0.851055
577 4 0.180914 0.189683 0.858412
578 4 0.251417 0.193496 0.843699
432 2 0.47941 0.195856 0.893236
278 4 0.405687 0.254818 0.821294
1104 2 0.39007 0.309405 0.84559
1105 4 0.406393 0.291494 0.872296
661 4 0.402668 0.292896 0.909549
662 4 0.471428 0.314633 0.910562
660 2 0.437048 0.303764 0.910056
953 4 0.113317 0.3756 0.834014
951 2 0.128974 0.368256 0.865658
952 4 0.144633 0.360912 0.897302
518 4 0.176745 0.34109 0.877982
516 2 0.203541 0.338029 0.901919
437 4 0.0131188 0.437969 0.870038
1160 4 0.123285 0.420671 0.929348
163 4 0.314827 0.472113 0.847673
162 2 0.280079 0.464343 0.841963
34 3 0.393232 0.43052 0.859054
31 1 0.378275 0.460431 0.860298
32 3 0.393283 0.480825 0.838862
33 3 0.346074 0.457469 0.851678
35 3 0.380667 0.472907 0.890587
1336 4 0.0814554 0.510294 0.886754
1335 2 0.0603693 0.538351 0.878471
1337 4 0.0392839 0.566408 0.870188
160 4 0.131731 0.581197 0.872873
1257 2 0.249984 0.562894 0.885062
1259 4 0.259708 0.538002 0.909274
159 2 0.166442 0.58984 0.868304
161 4 0.201159 0.598484 0.863729
1258 4 0.240256 0.587796 0.860844
680 4 0.26298 0.615046 0.840298
678 2 0.291761 0.627648 0.85799
679 4 0.320545 0.640253 0.875681
897 2 0.108117 0.682558 0.85016
898 4 0.101146 0.661585 0.878654
811 4 0.278539 0.781133 0.841544
1453 4 0.430235 0.721654 0.834115
23 3 0.434402 0.76181 0.831228
21 1 0.443142 0.749693 0.861173
24 3 0.458737 0.720313 0.857501
25 3 0.416466 0.745949 0.879967
781 4 0.318676 0.753476 0.873126
780 2 0.321552 0.788552 0.88099
1301 4 0.361282 0.835629 0.901885
782 4 0.324428 0.823628 0.888855
22 3 0.463874 0.771091 0.875767
1178 4 0.00832497 0.870395 0.86408
1176 2 0.00984358 0.903985 0.87711
306 2 0.287894 0.925681 0.835438
307 4 0.311647 0.930296 0.862176
1299 2 0.384817 0.844504 0.876043
1247 4 0.383623 0.884004 0.854059
1245 2 0.372382 0.918203 0.856199
1456 4 0.26316 0.843323 0.997474
987 2 0.213851 0.890045 0.999095
1177 4 0.0113621 0.937574 0.890141
445 4 0.118231 0.969859 0.857841
840 2 0.063501 0.0241638 0.991871
29 3 0.189523 0.0529254 0.000105927
841 4 0.0698279 0.0596161 0.993739
962 4 0.475659 0.993338 0.917313
968 4 0.046392 0.136411 0.952197
967 4 0.102365 0.100205 0.924668
966 2 0.074379 0.118307 0.938432
69 2 0.206042 0.141371 0.968098
71 4 0.184206 0.115398 0.95589
1355 4 0.368307 0.0861991 0.974823
1353 2 0.365552 0.119878 0.962235
1354 4 0.362798 0.15356 0.949646
713 4 0.0846201 0.859537 0.988241
961 4 0.439243 0.991805 0.979548
43 3 0.073433 0.161731 0.970353
654 2 0.0317473 0.17953 0.938785
656 4 0.0630049 0.162108 0.934328
797 4 0.0149388 0.486108 0.796888
176 4 0.0920709 0.214431 0.96172
174 2 0.117187 0.205981 0.937262
70 4 0.227879 0.167343 0.980305
940 4 0.374196 0.176767 0.92271
939 2 0.369133 0.198485 0.951049
941 4 0.364068 0.220204 0.979389
862 4 0.435713 0.135152 0.988212
434 4 0.454555 0.179193 0.91336
861 2 0.447465 0.163397 0.969119
863 4 0.459218 0.191642 0.950026
517 4 0.230336 0.334969 0.925857
989 4 0.190013 0.916959 0.996296
507 2 0.0152087 0.36928 0.955263
508 4 0.0443321 0.37086 0.976469
1304 4 0.0560575 0.405316 0.98167
1159 4 0.149986 0.359681 0.957078
1158 2 0.136636 0.390176 0.943213
1294 4 0.367778 0.41447 0.97551
1293 2 0.385069 0.43548 0.951845
1295 4 0.402359 0.45649 0.92818
800 4 0.496301 0.257054 0.703684
1145 4 0.492013 0.0525503 0.736104
842 4 0.0571733 0.988711 0.990004
867 2 0.253982 0.563657 0.963478
869 4 0.25395 0.568054 0.927685
1341 2 0.333124 0.58143 0.971429
1342 4 0.364934 0.568944 0.982943
581 4 0.458287 0.573522 0.940785
579 2 0.493616 0.566849 0.943578
173 4 0.0844488 0.633624 0.98571
171 2 0.0530137 0.651169 0.983616
172 4 0.0215775 0.668715 0.981522
655 4 0.000490524 0.196951 0.943244
1343 4 0.301313 0.593918 0.959916
1045 4 0.475875 0.759452 0.958065
110 4 0.0203157 0.979899 0.931572
369 2 0.490939 0.643709 0.984682
1009 4 0.00714059 0.701494 0.997976
536 4 0.225189 0.794123 0.926327
535 4 0.269381 0.808506 0.981481
534 2 0.247285 0.801314 0.953904
1181 4 0.385842 0.778849 0.977682
1179 2 0.356283 0.792682 0.993023
1044 2 0.472762 0.795307 0.960323
1046 4 0.469649 0.831163 0.962582
50 3 0.00974223 0.19491 0.503614
112 4 0.797101 0.0314417 0.0425404
111 2 0.82801 0.0500149 0.0422731
719 4 0.781035 0.0575178 0.0673768
1411 4 0.832211 0.0786043 0.0710224
113 4 0.858917 0.06859 0.0420063
776 4 0.834402 0.100531 0.0369243
774 2 0.862105 0.123565 0.0353552
1321 4 0.992384 0.110129 0.0121712
456 2 0.632431 0.243641 0.0462034
457 4 0.610904 0.218095 0.0597821
775 4 0.889809 0.146598 0.0337881
215 4 0.953358 0.238578 0.0245193
1117 4 0.978138 0.214022 0.0335164
1116 2 0.981535 0.191086 0.0611357
458 4 0.653958 0.269188 0.0326246
1508 4 0.720802 0.275659 0.0383997
1506 2 0.749828 0.296856 0.0413335
1507 4 0.778854 0.318053 0.044267
802 4 0.836708 0.309713 0.029957
521 4 0.545906 0.372125 0.0307085
1424 4 0.993623 0.367323 0.158227
519 2 0.559335 0.355732 0.059886
801 2 0.84367 0.342327 0.0436807
803 4 0.850631 0.37494 0.057404
138 2 0.797393 0.445075 0.0318387
570 2 0.998402 0.725608 0.186082
140 4 0.798812 0.441775 0.0677203
1026 2 0.899629 0.464591 0.0947796
102 2 0.995816 0.154751 0.145623
1027 4 0.868519 0.462636 0.0766495
366 2 0.968831 0.46804 0.00483005
368 4 0.945223 0.444751 0.0189972
917 4 0.828589 0.566015 0.0409923
1418 4 0.989336 0.52612 0.00839945
1417 4 0.927527 0.5556 0.0310341
1416 2 0.958432 0.54086 0.019717
1435 4 0.549977 0.643011 0.0415997
512 4 0.818113 0.591744 0.0606546
915 2 0.833994 0.59849 0.0262763
733 4 0.929724 0.617344 0.0641402
1434 2 0.547098 0.669708 0.0656709
561 2 0.651794 0.696598 0.0149749
563 4 0.626695 0.684243 0.0377299
593 4 0.71756 0.74559 0.0120893
104 4 0.974339 0.150588 0.116956
1195 4 0.808747 0.774399 0.0271148
901 4 0.595759 0.787134 0.0482782
900 2 0.590026 0.801338 0.0809236
257 4 0.617235 0.794497 0.0211864
592 4 0.68757 0.79122 0.0592081
591 2 0.702564 0.768405 0.0356483
1194 2 0.779151 0.76298 0.00996454
634 4 0.947087 0.945085 0.416244
1113 2 0.729541 0.863951 0.0221587
1114 4 0.74546 0.895643 0.0156265
893 4 0.73475 0.000367455 0.0357177
891 2 0.742299 0.965562 0.0300553
892 4 0.749848 0.930758 0.0243931
1262 4 0.769038 0.0768147 0.170035
717 2 0.766305 0.0415904 0.096183
718 4 0.751575 0.0256625 0.124989
1327 4 0.861617 0.0434475 0.126875
686 4 0.51106 0.161753 0.146972
254 4 0.715561 0.0814697 0.129802
252 2 0.715643 0.117201 0.134667
253 4 0.715724 0.152933 0.139531
1410 2 0.839748 0.0937465 0.102873
1412 4 0.847285 0.108889 0.13472
373 4 0.861947 0.140732 0.127492
372 2 0.857878 0.165482 0.153401
244 4 0.510809 0.195154 0.167103
721 4 0.681121 0.16562 0.152776
1118 4 0.984932 0.168151 0.0887553
1188 2 0.521344 0.264955 0.126794
1190 4 0.550598 0.267362 0.105845
520 4 0.572763 0.339338 0.089064
1426 4 0.9605 0.365914 0.130678
1425 2 0.951676 0.400865 0.131661
1028 4 0.93074 0.466547 0.11291
1427 4 0.942853 0.435817 0.132643
479 4 0.982337 0.440025 0.138463
1351 4 0.604652 0.558889 0.146142
510 2 0.793593 0.579583 0.0841344
511 4 0.769074 0.567421 0.107614
947 4 0.547456 0.632121 0.173868
945 2 0.55633 0.651977 0.145103
1350 2 0.589747 0.585295 0.165662
698 4 0.689346 0.658963 0.165805
877 4 0.685213 0.584916 0.178113
483 2 0.78441 0.62011 0.15487
484 4 0.780584 0.593059 0.131331
732 2 0.933809 0.644464 0.0875547
734 4 0.937893 0.671585 0.110969
1436 4 0.544219 0.696404 0.0897419
946 4 0.565204 0.671833 0.116337
697 4 0.680321 0.708794 0.114454
696 2 0.684834 0.683878 0.140129