ITEM: TIMESTEP
593000
ITEM: NUMBER OF ATOMS
1520
ITEM: BOX BOUNDS pp pp pp
-6.9326749999999997e+00 6.9326749999999997e+00
-6.9326749999999997e+00 6.9326749999999997e+00
-6.9326749999999997e+00 6.9326749999999997e+00
ITEM: ATOMS id type xs ys zs
1151 4 0.204086 0.0289289 0.0372088
1149 2 0.23162 0.025503 0.0141746
312 2 0.40998 0.0178612 0.0334546
189 2 0.487635 0.00695802 0.506121
313 4 0.419995 0.983985 0.026205
787 4 0.0639927 0.0823463 0.0770976
786 2 0.0602306 0.1182 0.0762093
788 4 0.0564685 0.154052 0.0753211
661 4 0.190808 0.108757 0.0444669
660 2 0.175623 0.141252 0.0407444
494 4 0.146475 0.177621 0.00396257
183 2 0.00262006 0.397849 0.474752
194 4 0.499293 0.126387 0.0869185
704 4 0.998776 0.771083 0.0382895
573 2 0.0324757 0.209154 0.0506179
575 4 0.032266 0.240564 0.0329046
476 4 0.0318588 0.221144 0.00228139
154 4 0.12806 0.296254 0.0596013
153 2 0.094766 0.305552 0.049332
1204 4 0.16126 0.282679 0.0718197
1044 2 0.354025 0.366313 0.0405695
1045 4 0.365986 0.39595 0.0238663
658 4 0.498491 0.0387436 0.42309
1445 4 0.104378 0.445399 0.0775408
155 4 0.0614718 0.314851 0.0390629
1015 4 0.490903 0.31758 0.0491645
1275 2 0.0442553 0.393037 0.0138414
1276 4 0.0380072 0.416664 0.0403588
142 4 0.213656 0.436718 0.0457597
141 2 0.218761 0.425485 0.0796443
1350 2 0.356118 0.498024 0.0706258
1352 4 0.324134 0.487138 0.0580182
1351 4 0.388102 0.50891 0.0832339
728 4 0.502169 0.932141 0.201212
130 4 0.0597148 0.483063 0.99464
931 4 0.428466 0.509181 0.0841846
930 2 0.425312 0.537758 0.0624174
85 4 0.994739 0.614431 0.0261699
932 4 0.422158 0.566335 0.0406502
929 4 0.0585415 0.742454 0.106015
1223 4 0.0930081 0.739124 0.0997362
178 4 0.00461287 0.878755 0.106045
1187 4 0.489951 0.702883 0.122689
1185 2 0.47561 0.734809 0.114001
1050 2 0.422841 0.729161 0.0262512
1051 4 0.388815 0.739121 0.0328414
538 4 0.0109239 0.228575 0.382875
878 4 0.0183757 0.298739 0.0665617
1357 4 0.344355 0.805985 0.997368
1140 2 0.046432 0.873947 0.000292668
1142 4 0.0797207 0.887069 0.00477458
1328 4 0.0814194 0.86159 0.0315396
1326 2 0.107327 0.836928 0.0269586
1327 4 0.133233 0.812265 0.0223769
281 4 0.427183 0.898043 0.0479235
279 2 0.438404 0.931807 0.0537981
280 4 0.449626 0.96557 0.059673
606 2 0.189144 0.995037 0.159724
607 4 0.194907 0.0305865 0.15787
725 4 0.225835 0.0493874 0.148041
723 2 0.244757 0.0800737 0.147198
1130 4 0.447379 0.0415023 0.0938653
1129 4 0.482287 0.979046 0.102924
1128 2 0.464833 0.0102736 0.0983944
724 4 0.263679 0.110761 0.146356
1028 4 0.261331 0.146064 0.13401
1027 4 0.31709 0.122268 0.0949423
1026 2 0.28921 0.134166 0.114476
574 4 0.0326853 0.177744 0.0683312
1203 2 0.190346 0.296151 0.0883418
1205 4 0.219431 0.309623 0.104863
160 4 0.252802 0.307457 0.119226
159 2 0.273067 0.28638 0.140333
161 4 0.293332 0.265302 0.161439
1444 4 0.131173 0.417023 0.138191
876 2 0.0327834 0.294944 0.0994012
877 4 0.0471909 0.291149 0.132241
468 2 0.0782844 0.380645 0.157229
1443 2 0.117775 0.431211 0.107866
143 4 0.223866 0.414252 0.113529
1102 4 0.209575 0.445784 0.123788
1400 4 0.297927 0.406384 0.119932
806 4 0.0564318 0.452514 0.086552
469 4 0.0990287 0.409688 0.152071
1101 2 0.206302 0.442466 0.159547
1504 4 0.404594 0.504921 0.179993
1503 2 0.418414 0.481104 0.156709
1505 4 0.432236 0.457287 0.133425
804 2 0.0633381 0.486336 0.0969828
805 4 0.0702448 0.520158 0.107413
1105 4 0.203437 0.50281 0.183234
1436 4 0.0263939 0.696826 0.162083
928 4 0.034293 0.678657 0.129329
927 2 0.0464174 0.710556 0.117671
1221 2 0.124007 0.74774 0.116021
1186 4 0.46127 0.766735 0.105314
955 4 0.462561 0.788832 0.136505
179 4 0.0109726 0.80708 0.110932
1222 4 0.155007 0.756356 0.132307
954 2 0.459702 0.78569 0.172316
177 2 0.00779282 0.842917 0.108488
218 4 0.159975 0.885088 0.136139
216 2 0.162263 0.893234 0.101085
217 4 0.16455 0.901379 0.0660306
62 4 0.393835 0.830716 0.0884378
61 4 0.38116 0.823883 0.159108
60 2 0.387497 0.8273 0.123773
1023 2 0.024098 0.933895 0.105807
1025 4 0.0466793 0.955533 0.0878545
1135 4 0.0742954 0.937507 0.0679659
1134 2 0.100211 0.962476 0.0702876
1136 4 0.126126 0.987444 0.0726097
992 4 0.133965 0.898907 0.154378
1088 4 0.202293 0.928691 0.178151
608 4 0.183383 0.959487 0.161579
227 4 0.112855 0.0550965 0.253733
225 2 0.128833 0.0810489 0.234456
1453 4 0.0877299 0.134207 0.270447
226 4 0.14481 0.107 0.215178
833 4 0.158726 0.136413 0.218975
12 3 0.00846005 0.173855 0.205204
1452 2 0.0844373 0.164942 0.251874
1454 4 0.0811448 0.195677 0.233301
697 4 0.111665 0.244176 0.229821
564 2 0.451169 0.272172 0.184523
565 4 0.452775 0.252877 0.1541
368 4 0.0314209 0.312974 0.236535
367 4 0.0484083 0.314505 0.166458
366 2 0.0399148 0.31374 0.201497
696 2 0.12596 0.273235 0.213958
698 4 0.140254 0.302294 0.198095
699 2 0.199174 0.311462 0.225059
701 4 0.198318 0.276644 0.215712
346 4 0.297484 0.247896 0.192506
345 2 0.29336 0.24119 0.227697
347 4 0.289237 0.234484 0.262889
1310 4 0.487868 0.309267 0.204274
566 4 0.449563 0.291467 0.214945
470 4 0.0575398 0.351603 0.162388
1232 4 0.11616 0.320663 0.220987
1230 2 0.103556 0.349144 0.239163
700 4 0.20003 0.34628 0.234406
1398 2 0.282423 0.381656 0.141112
1399 4 0.26692 0.356929 0.162292
110 4 0.229005 0.349944 0.213509
108 2 0.256393 0.372331 0.220515
152 4 0.300281 0.412019 0.254004
1103 4 0.203029 0.439149 0.195305
650 4 0.176839 0.453985 0.219114
648 2 0.200666 0.448986 0.245717
257 4 0.0432098 0.592576 0.18284
255 2 0.0684984 0.568177 0.190937
1063 4 0.10946 0.514958 0.214923
1064 4 0.160565 0.54724 0.254264
1062 2 0.135012 0.531099 0.234593
256 4 0.0937874 0.543778 0.199034
1104 2 0.227294 0.527857 0.193428
1106 4 0.25115 0.552904 0.203622
84 2 0.024431 0.605217 0.00789648
1434 2 0.0467424 0.68466 0.189256
513 2 0.0734635 0.655743 0.287103
515 4 0.0849267 0.675489 0.25919
1435 4 0.0670909 0.672494 0.216428
251 4 0.26223 0.768558 0.184728
249 2 0.282762 0.74054 0.175045
250 4 0.303295 0.712521 0.165362
421 4 0.185694 0.777451 0.202294
422 4 0.243989 0.78747 0.161028
420 2 0.214842 0.78246 0.181661
956 4 0.456843 0.782548 0.208126
922 4 0.386851 0.814836 0.193878
921 2 0.366141 0.833072 0.217093
923 4 0.34543 0.851308 0.240307
958 4 0.0806599 0.937778 0.180936
957 2 0.0492251 0.954955 0.176786
959 4 0.0177905 0.972132 0.172637
990 2 0.100091 0.90099 0.166567
991 4 0.0662166 0.903074 0.178756
1317 2 0.109933 0.00778546 0.212908
1318 4 0.0909938 0.995371 0.184844
1086 2 0.197005 0.900489 0.199995
1087 4 0.191718 0.872288 0.221838
727 4 0.490014 0.955291 0.133998
726 2 0.496091 0.943716 0.167604
503 4 0.0245405 0.0687634 0.276331
604 4 0.284046 0.072362 0.313042
603 2 0.267359 0.0927017 0.288382
1261 4 0.284605 0.040844 0.303589
386 4 0.283032 0.0623837 0.343409
501 2 0.0430046 0.0964708 0.262482
502 4 0.0614685 0.124178 0.248633
832 4 0.225876 0.123996 0.242174
831 2 0.192301 0.130204 0.230574
884 4 0.16142 0.159374 0.317716
605 4 0.250672 0.113043 0.26372
883 4 0.125188 0.183404 0.37526
882 2 0.143304 0.171389 0.346488
215 4 0.279147 0.268589 0.272107
214 4 0.259995 0.282167 0.340301
213 2 0.269571 0.275378 0.306204
865 4 0.244016 0.333423 0.333539
83 4 0.450508 0.336842 0.315288
82 4 0.486615 0.276725 0.298443
464 4 0.0281073 0.757838 0.0169571
81 2 0.468561 0.306784 0.306866
1231 4 0.0909524 0.377625 0.25734
989 4 0.0981784 0.403158 0.287253
987 2 0.0986025 0.430066 0.311257
109 4 0.283782 0.394718 0.22752
551 4 0.299354 0.389394 0.299041
550 4 0.262082 0.359367 0.352993
549 2 0.280718 0.374381 0.326017
1120 4 0.44663 0.363726 0.338398
988 4 0.0990264 0.456975 0.33526
263 4 0.12564 0.474947 0.316146
261 2 0.144337 0.502315 0.301941
649 4 0.224494 0.443987 0.272318
150 2 0.276923 0.437876 0.263289
151 4 0.253566 0.463734 0.272574
262 4 0.163035 0.529683 0.287735
113 4 0.290525 0.549935 0.278538
111 2 0.282915 0.517424 0.264917
112 4 0.275306 0.484913 0.251297
1397 4 0.383327 0.523942 0.291681
1395 2 0.408224 0.546994 0.303895
514 4 0.0620005 0.635997 0.315015
676 4 0.0912606 0.612072 0.330027
675 2 0.0957959 0.58383 0.351988
1283 4 0.16509 0.725703 0.290196
1242 2 0.226459 0.748211 0.298706
1244 4 0.258713 0.762031 0.290393
1282 4 0.106106 0.760957 0.312098
1281 2 0.135598 0.743331 0.301147
1243 4 0.194206 0.734391 0.30702
297 2 0.31143 0.806704 0.346635
299 4 0.336284 0.81781 0.322986
377 4 0.281486 0.860351 0.286001
375 2 0.282899 0.896365 0.287166
376 4 0.284313 0.93238 0.28833
1319 4 0.128873 0.0202001 0.240972
1260 2 0.278335 0.00533847 0.304233
1262 4 0.272066 0.969832 0.304877
384 2 0.304476 0.0663226 0.372132
545 4 0.338473 0.0330236 0.389865
208 4 0.0334535 0.147371 0.336729
207 2 0.0664174 0.160222 0.343702
385 4 0.325921 0.0702607 0.400855
947 4 0.315477 0.071383 0.438412
437 4 0.472688 0.157696 0.421613
628 4 0.396339 0.150183 0.439197
544 4 0.339882 0.992457 0.44948
209 4 0.0993817 0.173073 0.350676
1421 4 0.14068 0.21472 0.363096
1419 2 0.153131 0.243572 0.380786
1390 4 0.27449 0.256431 0.360107
537 2 0.0337111 0.253626 0.395269
539 4 0.056498 0.278677 0.407664
572 4 0.0767425 0.295886 0.385279
570 2 0.0952499 0.298248 0.354419
571 4 0.113757 0.300609 0.32356
1389 2 0.303086 0.255059 0.382035
864 2 0.234745 0.326808 0.367755
866 4 0.225473 0.320195 0.40197
1391 4 0.331682 0.253688 0.403962
1119 2 0.440156 0.387203 0.364993
1121 4 0.433681 0.410681 0.391588
578 4 0.371686 0.487019 0.385704
576 2 0.395375 0.501714 0.362829
1396 4 0.433122 0.570045 0.316109
1285 4 0.47233 0.566933 0.397131
1286 4 0.445828 0.539203 0.336055
1284 2 0.459079 0.553068 0.366593
680 4 0.0331199 0.603544 0.397855
678 2 0.0362501 0.626533 0.370242
677 4 0.10033 0.55559 0.37395
97 4 0.479894 0.645416 0.359404
679 4 0.0393813 0.649519 0.342633
533 4 0.314168 0.663235 0.410031
269 4 0.313293 0.696282 0.392233
934 4 0.0191873 0.850204 0.315043
756 2 0.253639 0.797068 0.398728
757 4 0.261654 0.81924 0.371441
298 4 0.286575 0.795598 0.370285
935 4 0.0512974 0.84147 0.379029
933 2 0.0352425 0.845837 0.347036
343 4 0.109001 0.912199 0.387465
775 4 0.159677 0.881912 0.402712
774 2 0.175918 0.903417 0.37875
587 4 0.312056 0.928244 0.391406
344 4 0.067669 0.965745 0.362443
342 2 0.0883349 0.938972 0.374954
776 4 0.192159 0.924922 0.354788
586 4 0.312731 0.93666 0.31978
585 2 0.312394 0.932452 0.355593
69 2 0.163751 0.00142634 0.481081
1170 2 0.220238 0.0664057 0.466196
1171 4 0.238433 0.0931038 0.482212
1172 4 0.202042 0.0397075 0.450179
543 2 0.339178 0.01274 0.419673
657 2 0.466565 0.0502254 0.41087
659 4 0.434639 0.0617076 0.398651
202 4 0.120692 0.104991 0.488071
772 4 0.104758 0.909481 0.423535
945 2 0.318539 0.107303 0.437519
946 4 0.321601 0.143223 0.436625
629 4 0.426252 0.0978298 0.399625
627 2 0.411296 0.124006 0.419411
625 4 0.272967 0.240299 0.467978
1420 4 0.165583 0.272424 0.398476
220 4 0.487917 0.978774 0.0677499
1451 4 0.226897 0.361342 0.468676
1449 2 0.214779 0.327891 0.462794
624 2 0.30692 0.249299 0.45982
626 4 0.340874 0.258299 0.451661
1450 4 0.202662 0.29444 0.456913
1432 4 0.0478869 0.362343 0.451075
1431 2 0.0765935 0.383397 0.445326
184 4 0.0368242 0.386549 0.476425
1433 4 0.105301 0.404452 0.439577
1515 2 0.436978 0.345047 0.482231
1517 4 0.445729 0.376119 0.466157
383 4 0.470954 0.381582 0.438594
577 4 0.419064 0.516409 0.339953
830 4 0.403129 0.503181 0.493547
662 4 0.160439 0.173748 0.0370215
381 2 0.494574 0.403346 0.422196
287 4 0.429417 0.495556 0.468681
666 2 0.0465003 0.541392 0.440418
667 4 0.040855 0.56926 0.418234
668 4 0.0521452 0.513528 0.462603
1252 4 0.0873647 0.525638 0.45227
1251 2 0.108792 0.527792 0.481195
1510 4 0.47573 0.85307 0.023098
773 4 0.117586 0.925541 0.492667
286 4 0.496376 0.517176 0.45285
285 2 0.462897 0.506366 0.460765
1258 4 0.00976609 0.592901 0.429302
827 4 0.0479504 0.605246 0.435594
825 2 0.0736249 0.622638 0.454008
826 4 0.0992968 0.640027 0.472418
559 4 0.120694 0.615284 0.455602
1046 4 0.342065 0.336676 0.0572729
560 4 0.186236 0.596415 0.47905
558 2 0.153465 0.605849 0.467326
531 2 0.287285 0.639254 0.408408
532 4 0.260402 0.615273 0.406784
1295 4 0.18564 0.748312 0.408641
267 2 0.293582 0.724915 0.401829
268 4 0.27387 0.753546 0.411425
107 4 0.0444516 0.833334 0.480093
105 2 0.0177712 0.823756 0.457803
71 4 0.139911 0.974373 0.481565
1293 2 0.167297 0.76055 0.437174
1294 4 0.148953 0.772788 0.465708
758 4 0.245623 0.774896 0.426015
771 2 0.111172 0.917511 0.458101
314 4 0.399966 0.0517371 0.0407042
70 4 0.18759 0.028479 0.480597
1516 4 0.428227 0.313975 0.498304
191 4 0.455359 0.998677 0.492334
1052 4 0.456867 0.7192 0.0196612
446 4 0.194028 0.0122345 0.62075
1509 2 0.50023 0.851001 0.996718
663 2 0.280894 0.0194728 0.512172
664 4 0.299286 0.988502 0.513891
360 2 0.219787 0.11301 0.537279
361 4 0.199872 0.10805 0.56693
203 4 0.171533 0.105998 0.539217
362 4 0.239701 0.11797 0.507627
1084 4 0.272122 0.1471 0.563576
1091 4 0.362036 0.0817758 0.632903
612 2 0.153533 0.309875 0.526466
295 4 0.272025 0.322321 0.55591
854 4 0.285973 0.362459 0.573674
55 4 0.485129 0.496511 0.949878
294 2 0.239356 0.336501 0.550243
296 4 0.206687 0.35068 0.544576
614 4 0.180919 0.318665 0.548218
1253 4 0.130219 0.529946 0.51012
829 4 0.372757 0.4463 0.525854
828 2 0.387943 0.47474 0.5097
311 4 0.146928 0.52638 0.542947
309 2 0.141409 0.53682 0.57702
1495 4 0.40492 0.544964 0.528388
1494 2 0.37603 0.566347 0.531319
1496 4 0.34714 0.58773 0.534249
750 2 0.210062 0.654273 0.576033
751 4 0.22929 0.632468 0.554697
391 4 0.337264 0.692478 0.548434
6 1 0.297355 0.651057 0.55937
10 3 0.30291 0.682989 0.554051
7 3 0.314345 0.641322 0.58615
9 3 0.264737 0.645888 0.564782
8 3 0.307537 0.633148 0.532998
390 2 0.346424 0.726312 0.539965
1246 4 0.250552 0.802772 0.575837
392 4 0.355584 0.760147 0.531496
913 4 0.49579 0.771152 0.577607
739 4 0.0245606 0.807966 0.581931
738 2 0.0511745 0.829117 0.5699
740 4 0.0777881 0.850269 0.55787
718 4 0.0906018 0.885918 0.566468
717 2 0.0912274 0.919535 0.553431
719 4 0.091853 0.953151 0.540394
665 4 0.262501 0.0504432 0.510453
444 2 0.216033 0.0134046 0.592205
445 4 0.238039 0.014575 0.56366
1159 4 0.216324 0.210226 0.614186
1158 2 0.21734 0.191496 0.644985
1160 4 0.218356 0.172767 0.675784
1083 2 0.297477 0.172669 0.565509
1090 4 0.407831 0.102991 0.684423
1089 2 0.384933 0.0923835 0.658663
1403 4 0.0741109 0.191702 0.61321
1401 2 0.0779872 0.21258 0.642356
1085 4 0.322832 0.198238 0.567441
252 2 0.346029 0.202443 0.670875
253 4 0.360611 0.169685 0.674707
92 4 0.0540781 0.283899 0.615874
90 2 0.0635982 0.31348 0.63417
871 4 0.375996 0.286183 0.642944
870 2 0.411265 0.293697 0.642925
872 4 0.446535 0.301211 0.642906
835 4 0.0652122 0.36542 0.676699
1322 4 0.0926877 0.443518 0.688059
91 4 0.0731183 0.34306 0.652466
243 2 0.266044 0.398847 0.602877
245 4 0.256711 0.421168 0.576136
852 2 0.321448 0.36275 0.5672
853 4 0.356922 0.363042 0.560726
1195 4 0.383518 0.421038 0.644828
1194 2 0.397074 0.391517 0.62917
1196 4 0.41063 0.361997 0.613513
893 4 0.435373 0.388992 0.60464
891 2 0.464475 0.370628 0.593857
80 4 0.0786995 0.503126 0.608094
78 2 0.0519736 0.507985 0.584376
79 4 0.025248 0.512843 0.560657
1321 4 0.0977854 0.47156 0.621807
1320 2 0.0952363 0.457539 0.654933
716 4 0.136357 0.469328 0.634553
244 4 0.275377 0.376524 0.629617
715 4 0.199907 0.501523 0.645803
714 2 0.168132 0.485426 0.640178
1426 4 0.222414 0.525423 0.636828
1425 2 0.252361 0.517219 0.61849
554 4 0.379461 0.435434 0.677538
552 2 0.394998 0.465769 0.665757
553 4 0.410535 0.496104 0.653975
310 4 0.135889 0.547261 0.611093
1512 2 0.146476 0.55972 0.662365
1514 4 0.117814 0.541996 0.649529
1427 4 0.282308 0.509016 0.600152
1073 4 0.167473 0.665881 0.623333
752 4 0.190834 0.676079 0.59737
1071 2 0.174159 0.63732 0.644308
1072 4 0.180845 0.60876 0.665283
451 4 0.110372 0.681415 0.581589
450 2 0.0844408 0.705538 0.588379
1116 2 0.227796 0.56107 0.515921
452 4 0.0585099 0.72966 0.595169
1247 4 0.312082 0.799367 0.613309
683 4 0.297107 0.798756 0.651088
1245 2 0.281317 0.801069 0.594573
523 4 0.412979 0.854909 0.616079
1168 4 0.41513 0.822822 0.602279
1169 4 0.463492 0.769936 0.594162
1167 2 0.439311 0.796379 0.59822
524 4 0.385332 0.891598 0.671677
522 2 0.399155 0.873254 0.643878
272 4 0.00584737 0.961533 0.633378
1115 4 0.0245996 0.981599 0.655052
1113 2 0.0523636 0.979448 0.632141
1114 4 0.080128 0.977297 0.60923
1307 4 0.486851 0.912082 0.640921
1368 2 0.160219 0.0102077 0.777752
1369 4 0.13776 0.983526 0.786923
1236 2 0.318367 0.0594338 0.724738
1237 4 0.334421 0.0770104 0.69765
1180 4 0.232933 0.148575 0.696962
1179 2 0.210312 0.121285 0.690331
1181 4 0.187691 0.093995 0.683701
669 2 0.42153 0.155746 0.742955
27 3 0.468859 0.08715 0.708676
29 3 0.474038 0.135322 0.732987
670 4 0.435444 0.123389 0.750692
26 1 0.489615 0.112439 0.714182
1394 4 0.00226812 0.866926 0.684397
224 4 0.495306 0.503273 0.618992
240 2 0.0319412 0.217819 0.7272
241 4 0.0573226 0.226369 0.703052
1402 4 0.0818633 0.233459 0.671502
855 2 0.116758 0.210529 0.737151
857 4 0.111203 0.222051 0.703434
254 4 0.331448 0.235201 0.667043
1249 4 0.320918 0.263588 0.643511
1118 4 0.257614 0.542224 0.523416
176 4 0.229093 0.316558 0.753625
174 2 0.238636 0.290327 0.730794
175 4 0.248179 0.264096 0.707962
1250 4 0.256072 0.274573 0.673108
1248 2 0.288495 0.269081 0.65831
838 4 0.442443 0.343684 0.78718
340 4 0.501582 0.313483 0.71596
834 2 0.0881808 0.357624 0.703384
836 4 0.111149 0.349828 0.730068
472 4 0.486974 0.331731 0.687367
471 2 0.455335 0.349011 0.686481
473 4 0.423696 0.36629 0.685594
76 4 0.0467942 0.453164 0.747359
75 2 0.01807 0.46977 0.733232
694 4 0.0114788 0.60076 0.710036
65 4 0.210766 0.575221 0.742283
1093 4 0.297732 0.516598 0.678381
1092 2 0.286728 0.543527 0.699692
1094 4 0.275725 0.570456 0.721003
1146 2 0.490054 0.57802 0.664912
1147 4 0.478804 0.549973 0.68459
1513 4 0.175139 0.577442 0.675201
484 4 0.290446 0.605333 0.70802
483 2 0.292141 0.639681 0.71887
1148 4 0.501303 0.606067 0.645233
44 3 0.265547 0.72341 0.707851
41 1 0.273749 0.703776 0.682021
45 3 0.281677 0.673785 0.692815
485 4 0.293836 0.674029 0.729721
42 3 0.247714 0.701506 0.661583
43 3 0.299506 0.717069 0.665294
1173 2 0.0703695 0.785067 0.730873
1175 4 0.0829295 0.815734 0.716654
681 2 0.292942 0.79254 0.686365
682 4 0.288777 0.786325 0.721642
500 4 0.293161 0.753341 0.736956
1430 4 0.100243 0.882663 0.734789
1428 2 0.0642053 0.883366 0.733696
1467 2 0.131122 0.8477 0.705311
1468 4 0.0998031 0.847982 0.723184
1469 4 0.162441 0.847417 0.687438
430 4 0.178442 0.913765 0.674947
790 4 0.210985 0.901006 0.711093
789 2 0.216416 0.865541 0.714725
791 4 0.221847 0.830077 0.718356
743 4 0.477947 0.871166 0.642686
118 4 0.464709 0.869946 0.761374
117 2 0.458489 0.902869 0.74804
741 2 0.494278 0.846449 0.663247
1367 4 0.134655 0.948172 0.769183
431 4 0.176247 0.984653 0.688051
429 2 0.177344 0.949209 0.681499
119 4 0.45227 0.935792 0.734706
1370 4 0.182678 0.0368887 0.768581
963 2 0.243893 0.0629783 0.772462
965 4 0.210539 0.0574393 0.785003
964 4 0.277246 0.0685171 0.759921
1238 4 0.302315 0.0418573 0.751827
290 4 0.244661 0.0233326 0.823373
288 2 0.2766 0.0201151 0.839802
747 2 0.371373 0.0588709 0.778289
145 4 0.255071 0.995245 0.965457
748 4 0.363361 0.0936041 0.783747
39 3 0.0574461 0.164366 0.784647
37 3 0.0642192 0.183427 0.834938
289 4 0.30854 0.0168975 0.856231
125 4 0.470806 0.188618 0.772188
144 2 0.242631 0.965685 0.948969
619 4 0.0218768 0.915855 0.929046
201 2 0.146112 0.105495 0.513644
242 4 0.00656011 0.20927 0.751347
36 1 0.0645003 0.191592 0.802783
40 3 0.0419531 0.214844 0.797329
520 4 0.0718364 0.236138 0.789076
1361 4 0.0160181 0.201466 0.785758
38 3 0.0949034 0.203074 0.794802
541 4 0.267068 0.257638 0.841604
671 4 0.407616 0.188103 0.735218
87 2 0.414619 0.221084 0.815968
519 2 0.0759775 0.268164 0.805125
521 4 0.0801203 0.30019 0.821174
856 4 0.122312 0.199007 0.770867
88 4 0.409782 0.250985 0.796399
837 2 0.424025 0.314409 0.797387
839 4 0.405608 0.285134 0.807594
904 4 0.173665 0.404337 0.84468
419 4 0.206517 0.42265 0.798237
417 2 0.224212 0.391672 0.792974
418 4 0.241906 0.360694 0.787712
182 4 0.0689785 0.438559 0.770594
180 2 0.0838886 0.462144 0.793437
181 4 0.0988004 0.485731 0.816275
905 4 0.118839 0.450684 0.837833
903 2 0.14625 0.427513 0.841257
722 4 0.439171 0.519189 0.787343
721 4 0.452935 0.44994 0.802063
720 2 0.446053 0.484564 0.794703
1150 4 0.259153 0.0220768 0.99114
918 2 0.0992653 0.512553 0.850285
920 4 0.090819 0.477576 0.852651
63 2 0.232982 0.60064 0.754961
1241 4 0.396319 0.542028 0.844435
1239 2 0.377246 0.57256 0.842322
1240 4 0.358173 0.603091 0.840209
729 2 0.0374144 0.667238 0.761262
731 4 0.0489266 0.655431 0.729193
730 4 0.0259023 0.679046 0.793332
64 4 0.255198 0.626058 0.767639
199 4 0.272257 0.601651 0.788449
198 2 0.305675 0.595125 0.800325
200 4 0.339093 0.588599 0.812201
1206 2 0.0532656 0.740657 0.804047
1208 4 0.0393809 0.738281 0.770851
1207 4 0.06715 0.743033 0.837244
1174 4 0.0578096 0.754399 0.745092
353 4 0.229836 0.74845 0.823947
1210 4 0.168099 0.787913 0.805864
498 2 0.268743 0.753414 0.763493
499 4 0.244326 0.753488 0.790029
910 4 0.36886 0.728265 0.818343
911 4 0.338928 0.792333 0.804166
909 2 0.353894 0.760299 0.811255
1429 4 0.0281678 0.884069 0.732603
171 2 0.331639 0.922836 0.87343
1365 2 0.166753 0.933512 0.776613
1366 4 0.198851 0.918852 0.784043
636 2 0.222885 0.962424 0.818979
638 4 0.224611 0.928416 0.807108
173 4 0.300309 0.906307 0.866671
637 4 0.221158 0.996431 0.830849
395 4 0.0171393 0.0505506 0.891311
393 2 0.0242635 0.0383157 0.858145
880 4 0.22934 0.0826976 0.866003
749 4 0.379385 0.0241372 0.772829
962 4 0.479457 0.0495712 0.812308
5 3 0.0907389 0.152073 0.890871
3 3 0.11848 0.105729 0.885257
1 1 0.102764 0.130526 0.869193
2 3 0.077785 0.117715 0.851514
879 2 0.215432 0.0994917 0.837281
881 4 0.201524 0.116285 0.808559
4 3 0.12398 0.145905 0.848377
689 4 0.212563 0.203388 0.867442
1201 4 0.486648 0.120215 0.836829
1200 2 0.46915 0.15122 0.842568
540 2 0.262502 0.232519 0.816136
542 4 0.257936 0.2074 0.790669
89 4 0.419456 0.191183 0.835536
1202 4 0.451653 0.182225 0.848307
633 2 0.00726051 0.399196 0.861456
511 4 0.273975 0.34473 0.801458
510 2 0.296573 0.361526 0.82399
512 4 0.31917 0.378322 0.846522
733 4 0.477625 0.322018 0.840734
518 4 0.444358 0.32399 0.85367
516 2 0.442289 0.347447 0.880981
635 4 0.0247071 0.430575 0.864825
380 4 0.0477606 0.424031 0.89063
378 2 0.063075 0.446114 0.914676
919 4 0.107706 0.547533 0.847927
623 4 0.140526 0.572676 0.922969
622 4 0.131883 0.575055 0.851406
621 2 0.136204 0.573866 0.887188
1216 4 0.096689 0.657899 0.91743
1022 4 0.219518 0.66121 0.880409
1020 2 0.232184 0.62756 0.877646
1021 4 0.244849 0.593909 0.874883
403 4 0.376571 0.822113 0.978358
1215 2 0.0895039 0.690469 0.93114
1362 2 0.30396 0.728795 0.921029
1363 4 0.275795 0.725202 0.898798
1209 2 0.15449 0.800965 0.836602
802 4 0.126617 0.846945 0.875407
351 2 0.238523 0.746017 0.858862
352 4 0.247209 0.743585 0.893776
1470 2 0.498966 0.821507 0.844592
1314 2 0.454571 0.751937 0.889791
1471 4 0.495257 0.785812 0.848129
1315 4 0.467806 0.781852 0.874613
1211 4 0.140881 0.814018 0.86734
801 2 0.13427 0.862968 0.906793
1488 2 0.191003 0.903414 0.932667
1489 4 0.163383 0.89959 0.955534
172 4 0.362968 0.939364 0.880188
620 4 0.071978 0.944448 0.885757
394 4 0.0313875 0.026081 0.824979
402 2 0.411959 0.816392 0.982286
1490 4 0.218624 0.907238 0.909801
146 4 0.230191 0.936125 0.93248
618 2 0.0469276 0.930152 0.907402
688 4 0.233062 0.191673 0.93559
687 2 0.222813 0.197531 0.901516
404 4 0.447345 0.810671 0.986214
474 2 0.0116678 0.218098 0.972558
493 4 0.138345 0.223158 0.948628
492 2 0.14241 0.200389 0.976295
317 4 0.0125428 0.251804 0.637672
1408 4 0.443375 0.345934 0.938217
1407 2 0.464012 0.371364 0.953311
517 4 0.440219 0.370904 0.908291
1409 4 0.484649 0.396794 0.968405
379 4 0.0783899 0.468197 0.938722
1162 4 0.113251 0.477473 0.931092
1161 2 0.13854 0.470078 0.906471
1163 4 0.16383 0.462684 0.88185
56 4 0.495804 0.42947 0.974234
54 2 0.490466 0.462991 0.962056
86 4 0.0541225 0.596003 0.989623
131 4 0.0960457 0.545366 0.994771
1198 4 0.254405 0.580319 0.98827
1197 2 0.284378 0.577422 0.968429
1199 4 0.31435 0.574525 0.948587
487 4 0.027258 0.605988 0.945847
803 4 0.141923 0.87899 0.93818
463 4 0.0799728 0.750897 0.967324
1217 4 0.0823188 0.723038 0.94485
1364 4 0.332125 0.732388 0.94326
647 4 0.0105639 0.345331 0.791129
1049 4 0.0292787 0.945287 0.609921
462 2 0.0540401 0.754367 0.992141
1047 2 0.0201154 0.915838 0.591233
1048 4 0.010952 0.88639 0.572545
601 4 0.310642 0.841676 0.963642
600 2 0.323731 0.82107 0.9371
1316 4 0.441336 0.722023 0.904968
602 4 0.33682 0.800464 0.910558
1141 4 0.0131436 0.860825 0.995811
1277 4 0.0505036 0.369411 0.987324
129 2 0.0778803 0.514215 0.994706
1358 4 0.356879 0.735027 0.994242
1356 2 0.350617 0.770506 0.995805
100 4 0.00668235 0.452401 0.994937
613 4 0.126147 0.301086 0.504713
1117 4 0.197979 0.579916 0.508427
219 2 0.517247 0.986356 0.0481875
843 2 0.770953 0.0497376 0.0212478
164 4 0.995922 0.248978 0.353597
844 4 0.767382 0.0320809 0.0524871
1438 4 0.777093 0.06272 0.0698526
168 2 0.632261 0.260941 0.0230719
795 2 0.758524 0.211749 0.104123
170 4 0.654911 0.236963 0.0084998
1478 4 0.678395 0.213415 0.0104302
796 4 0.787833 0.22686 0.0895276
169 4 0.60961 0.284921 0.0376438
953 4 0.579878 0.297258 0.0564187
951 2 0.600089 0.326123 0.0487543
1014 2 0.522059 0.319609 0.0311201
952 4 0.620301 0.354987 0.0410893
52 4 0.907094 0.315114 0.0270836
506 4 0.928444 0.333989 0.0447106
122 4 0.674859 0.511796 0.0371466
425 4 0.703761 0.419925 0.0400286
423 2 0.720086 0.43097 0.00983054
325 4 0.954773 0.465252 0.0449523
324 2 0.925227 0.481862 0.0572632
120 2 0.646015 0.516674 0.0160594
713 4 0.996853 0.77675 0.072407
409 4 0.82522 0.637098 0.0928949
408 2 0.811155 0.635262 0.0597404
326 4 0.895681 0.498472 0.0695739
808 4 0.565464 0.604807 0.00538071
807 2 0.572722 0.615191 0.0391427
982 4 0.697247 0.612792 0.0420951
981 2 0.688327 0.61249 0.0770341
1229 4 0.858317 0.619199 0.0810072
1227 2 0.883417 0.598187 0.065878
937 4 0.60922 0.361102 0.00823511
1379 4 0.942712 0.611473 0.245302
711 2 0.968476 0.754592 0.0744561
712 4 0.940099 0.732435 0.0765047
887 4 0.556058 0.819305 0.0392355
885 2 0.570957 0.791728 0.0570672
1041 2 0.799616 0.830741 0.0519245
1042 4 0.804909 0.828844 0.0875444
819 2 0.837485 0.907423 0.0703752
1043 4 0.794322 0.832638 0.016304
821 4 0.867356 0.907889 0.0501768
34 3 0.702553 0.649931 0.48743
1298 4 0.602115 0.976129 0.0794299
1297 4 0.62204 0.918385 0.0410865
1296 2 0.612078 0.947257 0.0602582
598 4 0.696285 3.91933e-05 0.111749
597 2 0.673962 0.0155318 0.135457
1437 2 0.775019 0.0485104 0.102931
1439 4 0.772945 0.0343004 0.13601
656 4 0.67167 0.115944 0.102915
797 4 0.729215 0.196638 0.118718
655 4 0.723652 0.16577 0.0988061
654 2 0.697661 0.140857 0.10086
710 4 0.990876 0.119011 0.113579
708 2 0.983537 0.14772 0.13413
709 4 0.976197 0.17643 0.15468
1345 4 0.753874 0.321056 0.114801
950 4 0.919995 0.195448 0.120524
948 2 0.936478 0.212629 0.147607
1291 4 0.539958 0.329134 0.128078
1346 4 0.721983 0.262266 0.141788
1344 2 0.737929 0.291661 0.128294
505 4 0.994895 0.331139 0.0726004
1290 2 0.57266 0.343478 0.123061
1292 4 0.605363 0.357823 0.118044
504 2 0.961669 0.332564 0.0586554
1474 4 0.728596 0.0123633 0.492253
490 4 0.579446 0.461669 0.142289
528 2 0.670251 0.471157 0.0911694
530 4 0.663738 0.497534 0.0674581
529 4 0.676764 0.44478 0.114881
809 4 0.57998 0.625576 0.0729048
983 4 0.679407 0.612189 0.111973
302 4 0.655494 0.634995 0.127864
410 4 0.79709 0.633426 0.0265857
1228 4 0.908518 0.577175 0.0507491
886 4 0.585855 0.764151 0.0748993
439 4 0.644263 0.728386 0.157188
300 2 0.661172 0.667282 0.14289
301 4 0.66685 0.699568 0.157915
438 2 0.629693 0.738204 0.125696
1423 4 0.868817 0.754638 0.140587
1137 2 0.886595 0.758777 0.102599
1138 4 0.851526 0.762893 0.109922
1139 4 0.921664 0.754662 0.0952765
440 4 0.615123 0.748022 0.0942046
820 4 0.807615 0.906957 0.0905731
1024 4 0.00151693 0.912257 0.12376
1016 4 0.553214 0.321638 0.0130753
939 2 0.933848 0.846023 0.156519
940 4 0.917223 0.869395 0.134661
371 4 0.644608 0.918597 0.155355
599 4 0.651639 0.0310247 0.159165
369 2 0.67348 0.924822 0.134665
370 4 0.702353 0.931047 0.113976
1406 4 0.737228 0.942875 0.108659
1405 4 0.778592 0.996987 0.132378
1404 2 0.75791 0.969931 0.120518
459 2 0.90753 0.991244 0.149662
460 4 0.912704 0.0107024 0.119745
735 2 0.589582 0.0131555 0.257756
1492 4 0.654447 0.129951 0.212473
412 4 0.633107 0.10489 0.223951
993 2 0.901831 0.110119 0.171918
994 4 0.934149 0.098605 0.16081
15 3 0.957808 0.167237 0.188236
1491 2 0.660695 0.126254 0.17715
1493 4 0.666944 0.122558 0.141827
579 2 0.723819 0.239245 0.263889
11 1 0.977007 0.183588 0.209281
14 3 0.975006 0.216467 0.203382
1460 4 0.956295 0.250333 0.19973
949 4 0.952962 0.22981 0.174689
13 3 0.967645 0.177033 0.240735
1308 2 0.50347 0.325826 0.232253
1309 4 0.519072 0.342384 0.260232
580 4 0.728307 0.261571 0.29185
1459 4 0.918658 0.309871 0.184231
1458 2 0.937477 0.280102 0.19198
761 4 0.6845 0.425562 0.25727
157 4 0.813975 0.404879 0.153989
156 2 0.836671 0.39812 0.181184
1077 2 0.568453 0.44132 0.256039
1079 4 0.552024 0.428801 0.22648
1078 4 0.584883 0.453839 0.285599
491 4 0.637355 0.469378 0.184583
489 2 0.608401 0.465523 0.163436
158 4 0.859367 0.391362 0.208381
1333 4 0.895814 0.464683 0.241395
1332 2 0.870666 0.439057 0.238044
1334 4 0.845518 0.41343 0.234692
456 2 0.647592 0.554184 0.212695
458 4 0.665019 0.552982 0.244244
457 4 0.630165 0.555388 0.181148
1378 4 0.961372 0.550311 0.211946
1377 2 0.952042 0.580893 0.228624
303 2 0.546087 0.730361 0.210184
305 4 0.566515 0.701033 0.214971
1157 4 0.59526 0.720957 0.217272
304 4 0.525657 0.759689 0.205398
1424 4 0.838195 0.744389 0.205076
1422 2 0.853506 0.749513 0.172831
1000 4 0.533712 0.91961 0.214825
999 2 0.557183 0.892329 0.217122
1001 4 0.580654 0.865048 0.219419
686 4 0.738946 0.835158 0.231513
685 4 0.807436 0.852261 0.216741
684 2 0.773191 0.84371 0.224127
1036 4 0.905007 0.859017 0.222835
941 4 0.950472 0.822651 0.178377
1035 2 0.880435 0.847827 0.246739
979 4 0.859609 0.957707 0.262539
449 4 0.589144 0.00630439 0.497484
736 4 0.596227 0.977717 0.257171
406 4 0.628119 0.977122 0.242421
405 2 0.626206 0.958096 0.211847
407 4 0.624292 0.939069 0.181273