ITEM: TIMESTEP
492500
ITEM: NUMBER OF ATOMS
1520
ITEM: BOX BOUNDS pp pp pp
-6.9326749999999997e+00 6.9326749999999997e+00
-6.9326749999999997e+00 6.9326749999999997e+00
-6.9326749999999997e+00 6.9326749999999997e+00
ITEM: ATOMS id type xs ys zs
737 4 0.0263068 0.0753201 0.0388652
1445 4 0.0100372 0.0481849 0.0569502
1233 2 0.250623 0.00531844 0.0489796
1235 4 0.221083 0.0258124 0.0461837
597 2 0.469062 0.0402214 0.0311583
599 4 0.444144 0.0649944 0.0392697
1296 2 0.481559 0.209785 0.462001
735 2 0.0263072 0.101947 0.063185
1279 4 0.0952794 0.147041 0.0211022
1278 2 0.119699 0.122397 0.011263
1174 4 0.493473 0.928318 0.395952
1185 2 0.347668 0.115028 0.0509404
1187 4 0.316484 0.0983332 0.0579569
101 4 0.410573 0.122904 0.0543388
1186 4 0.378852 0.131724 0.0439241
327 2 0.223069 0.302861 0.0349601
329 4 0.188106 0.311188 0.037904
532 4 0.164881 0.329117 0.0623642
328 4 0.258032 0.294533 0.0320164
850 4 0.276074 0.289394 0.0662811
849 2 0.311755 0.294606 0.0659683
851 4 0.347436 0.299818 0.0656554
764 4 0.434026 0.283601 0.0903857
763 4 0.438296 0.31642 0.0263052
762 2 0.436161 0.30001 0.0583455
79 4 0.0195112 0.342547 0.0717017
78 2 0.00373905 0.373817 0.0802945
822 2 0.0145075 0.750445 0.333717
593 4 0.143306 0.4541 0.0477253
392 4 0.11204 0.45777 0.0265911
390 2 0.0885178 0.478765 0.00908911
591 2 0.171742 0.465017 0.0670291
1357 4 0.213768 0.446931 0.0770374
292 4 0.480725 0.499664 0.0676051
237 2 0.0331657 0.536811 0.0581276
437 4 0.431693 0.130225 0.495585
239 4 0.0682614 0.536087 0.0663847
241 4 0.0114873 0.553885 0.0233886
1252 4 0.251845 0.553279 0.0294438
1251 2 0.249605 0.524514 0.0078105
1281 2 0.424862 0.557394 0.0457771
1283 4 0.436839 0.530109 0.025466
650 4 0.420472 0.549142 0.999524
631 4 0.0797685 0.672367 0.0110092
1282 4 0.412885 0.584677 0.0660876
1378 4 0.485361 0.637545 0.327281
360 2 0.10448 0.746368 0.074307
630 2 0.0887571 0.675178 0.0458189
361 4 0.102838 0.713169 0.0882904
1156 4 0.171662 0.687919 0.0135799
1155 2 0.207304 0.692307 0.0168705
1157 4 0.242945 0.696696 0.0201612
234 2 0.495959 0.425283 0.306533
558 2 0.267339 0.740751 0.0148315
362 4 0.106122 0.779567 0.0603235
559 4 0.265218 0.773946 0.0287594
1427 4 0.291187 0.799239 0.0294759
413 4 0.429806 0.814428 0.0524649
411 2 0.458358 0.809419 0.0739151
1441 4 0.0263388 0.898061 0.0399934
1440 2 0.0258589 0.888384 0.00525783
621 2 0.239664 0.882241 0.0751311
1425 2 0.293077 0.830973 0.0464995
1426 4 0.294967 0.862707 0.0635232
623 4 0.267025 0.881533 0.0516522
598 4 0.49398 0.0154483 0.0230472
1095 2 0.00308888 0.955012 0.0483258
1096 4 0.00753068 0.990057 0.0410794
1234 4 0.280162 0.984825 0.0517753
749 4 0.476302 0.768403 0.249201
1424 4 0.22214 0.956657 0.498574
425 4 0.178247 0.0350832 0.136792
557 4 0.182946 0.0588364 0.109718
423 2 0.174012 0.0487452 0.169895
347 4 0.258942 0.0361997 0.160355
736 4 0.0263073 0.128573 0.0875048
170 4 0.109586 0.140798 0.169145
555 2 0.166792 0.0899321 0.101204
556 4 0.150637 0.121028 0.0926901
1271 4 0.354978 0.139479 0.137509
99 2 0.426974 0.121911 0.0864385
1269 2 0.335766 0.167759 0.148981
772 4 0.41995 0.144844 0.141975
100 4 0.443375 0.120918 0.118539
771 2 0.438112 0.152565 0.172157
752 4 0.411569 0.248772 0.134235
1303 4 0.43814 0.23348 0.151976
1302 2 0.466207 0.244727 0.132324
750 2 0.390874 0.258693 0.10642
751 4 0.370179 0.268615 0.0786043
1304 4 0.494274 0.255975 0.112674
1243 4 0.154887 0.34736 0.150792
261 2 0.129548 0.40285 0.168917
262 4 0.12497 0.374578 0.147001
533 4 0.126638 0.342636 0.122001
531 2 0.145759 0.335876 0.0921818
606 2 0.317963 0.382625 0.168596
607 4 0.309618 0.383566 0.133526
156 2 0.468924 0.37964 0.136016
157 4 0.456474 0.412031 0.126206
158 4 0.481374 0.347249 0.145826
592 4 0.200177 0.475934 0.0863329
1356 2 0.24854 0.437842 0.0740931
1358 4 0.283312 0.428753 0.0711487
293 4 0.46891 0.437363 0.101966
291 2 0.474818 0.468514 0.0847853
842 4 0.0790658 0.577648 0.159638
840 2 0.0715497 0.569271 0.125378
841 4 0.0640339 0.560894 0.0911187
547 4 0.235551 0.526548 0.0954636
548 4 0.287834 0.565001 0.126919
546 2 0.261693 0.545775 0.111191
419 4 0.471034 0.543925 0.157083
112 4 0.156989 0.304253 0.482957
613 4 0.438125 0.531652 0.161086
1198 4 0.245195 0.666573 0.160416
931 4 0.414272 0.602497 0.0955523
930 2 0.433808 0.607635 0.125424
932 4 0.453344 0.612774 0.155296
1138 4 0.0565253 0.718935 0.154286
464 4 0.074158 0.737179 0.12696
462 2 0.088863 0.748276 0.157961
632 4 0.0977458 0.67799 0.0806286
15 3 0.139238 0.730815 0.135849
14 3 0.14887 0.68921 0.16939
11 1 0.159666 0.705974 0.142514
13 3 0.161565 0.685379 0.116205
12 3 0.189895 0.718085 0.148857
1199 4 0.291012 0.718443 0.140122
1197 2 0.268103 0.692508 0.150269
1162 4 0.29859 0.746984 0.0649303
181 4 0.0444032 0.79693 0.105736
1161 2 0.323324 0.763531 0.0852985
1163 4 0.348058 0.780077 0.105667
412 4 0.48691 0.80441 0.0953655
384 2 0.0720844 0.919599 0.10991
385 4 0.107655 0.913672 0.110078
1376 4 0.119826 0.856152 0.142818
929 4 0.135384 0.87631 0.114042
927 2 0.170418 0.872098 0.121479
928 4 0.205452 0.867885 0.128916
622 4 0.212303 0.882949 0.0986095
1079 4 0.303238 0.884671 0.174777
1077 2 0.282722 0.855939 0.167431
745 4 0.326664 0.905762 0.156766
815 4 0.382507 0.910244 0.112815
813 2 0.39198 0.901682 0.14654
1201 4 0.499517 0.837573 0.0924507
386 4 0.0365139 0.925526 0.109742
424 4 0.169777 0.0624076 0.202998
345 2 0.241502 0.00911657 0.176565
169 4 0.0520399 0.127162 0.210425
949 4 0.0391997 0.148932 0.235299
404 4 0.168747 0.0977 0.213113
168 2 0.0808132 0.13398 0.189785
402 2 0.19825 0.118108 0.209438
403 4 0.227753 0.138516 0.205763
773 4 0.456275 0.160286 0.202339
388 4 0.498496 0.15453 0.204599
646 4 0.182821 0.195972 0.236548
980 4 0.2563 0.265763 0.181454
1270 4 0.316555 0.196038 0.160452
1242 2 0.162166 0.321655 0.175016
978 2 0.225773 0.272711 0.199348
979 4 0.195245 0.279658 0.217242
1244 4 0.169443 0.295951 0.199239
298 4 0.398134 0.32797 0.189705
297 2 0.373849 0.342088 0.212317
791 4 0.468539 0.35191 0.181839
789 2 0.456451 0.3198 0.192939
790 4 0.444362 0.287689 0.204038
1226 4 0.0230252 0.405745 0.249505
263 4 0.134126 0.43112 0.190831
184 4 0.216475 0.400911 0.194209
608 4 0.326308 0.381684 0.203666
393 2 0.313618 0.38727 0.257127
395 4 0.30077 0.419041 0.245903
299 4 0.349565 0.35621 0.234924
725 4 0.0330156 0.44596 0.258526
185 4 0.282888 0.420127 0.214743
183 2 0.249682 0.410519 0.204476
837 2 0.465648 0.492078 0.253183
1420 4 0.0606295 0.567505 0.238336
1419 2 0.0334781 0.559672 0.215935
637 4 0.073939 0.533596 0.23884
1421 4 0.00632643 0.551838 0.193533
636 2 0.108106 0.522423 0.241696
614 4 0.422997 0.531315 0.231603
612 2 0.43056 0.531484 0.196344
839 4 0.457508 0.520312 0.232279
451 4 0.345828 0.639416 0.244212
224 4 0.481327 0.639513 0.154516
222 2 0.473629 0.65254 0.187249
1137 2 0.0340738 0.690716 0.154554
98 4 0.136035 0.746305 0.190636
96 2 0.147886 0.731958 0.221525
1399 4 0.348256 0.76497 0.251037
223 4 0.465929 0.665566 0.219981
1482 2 0.00970524 0.753785 0.240649
864 2 0.252991 0.987929 0.449345
907 4 0.0111107 0.801947 0.196775
463 4 0.103567 0.759373 0.188961
1375 4 0.0981059 0.812925 0.196309
1374 2 0.108966 0.834538 0.169564
1078 4 0.262205 0.827207 0.160084
748 4 0.476625 0.826951 0.207087
747 2 0.476463 0.797677 0.228144
1117 4 0.197601 0.920364 0.233653
814 4 0.401453 0.893118 0.180264
549 2 0.0811387 0.956592 0.234632
551 4 0.104035 0.950018 0.207558
1116 2 0.196645 0.942893 0.205511
1118 4 0.195688 0.965421 0.177369
346 4 0.224061 0.982034 0.192775
744 2 0.310056 0.92765 0.180121
1171 4 0.308266 0.970908 0.230458
1170 2 0.294923 0.985269 0.260726
746 4 0.293447 0.949538 0.203477
595 4 0.253862 0.0241824 0.290006
596 4 0.196728 0.0681848 0.288996
594 2 0.225295 0.0461836 0.289501
484 4 0.380846 0.0405256 0.305811
1474 4 0.357405 0.0212945 0.326323
483 2 0.372358 0.0688033 0.326517
1069 4 0.0711003 0.105837 0.32813
948 2 0.05176 0.132735 0.264969
950 4 0.0643203 0.116538 0.294639
1405 4 0.17032 0.0869713 0.303284
1404 2 0.136095 0.0878938 0.314605
647 4 0.220414 0.188763 0.297674
787 4 0.196604 0.161757 0.295321
645 2 0.201618 0.192368 0.267111
1026 2 0.391312 0.241119 0.295391
1027 4 0.406991 0.209755 0.286972
794 4 0.0161846 0.26726 0.28656
761 4 0.0750676 0.315303 0.295398
792 2 0.00241129 0.235708 0.297292
123 2 0.207679 0.335368 0.310774
124 4 0.238749 0.326665 0.326876
1028 4 0.375634 0.272483 0.303809
574 4 0.357736 0.329828 0.264722
573 2 0.382973 0.326192 0.290215
575 4 0.408215 0.322551 0.315711
1178 4 0.421814 0.306734 0.345244
760 4 0.0215693 0.355211 0.26807
759 2 0.0483185 0.335257 0.281734
723 2 0.0681071 0.437692 0.257713
724 4 0.103199 0.429425 0.256901
180 2 0.0137796 0.779403 0.113182
125 4 0.176609 0.344071 0.294671
394 4 0.326461 0.355502 0.268353
1510 4 0.486578 0.733446 0.249963
1502 4 0.470474 0.843684 0.42349
235 4 0.462828 0.439062 0.302946
838 4 0.473788 0.463845 0.274088
638 4 0.142274 0.51125 0.244553
1379 4 0.476284 0.601552 0.265444
1023 2 0.445428 0.544665 0.30274
1024 4 0.454457 0.569488 0.278189
455 4 0.222153 0.57194 0.34845
306 2 0.203071 0.610001 0.303573
308 4 0.195368 0.582433 0.325507
307 4 0.210773 0.637568 0.281638
450 2 0.337554 0.61147 0.265448
452 4 0.329281 0.583524 0.286684
1484 4 0.0161353 0.735655 0.271151
823 4 0.0308059 0.75439 0.301792
97 4 0.159737 0.717611 0.252413
1400 4 0.402096 0.750096 0.20541
1398 2 0.375176 0.757533 0.228224
1509 2 0.494691 0.725537 0.284198
1500 2 0.468672 0.868997 0.449111
845 4 0.497077 0.86528 0.249956
550 4 0.0582427 0.963167 0.261705
753 2 0.099485 0.967463 0.319942
755 4 0.07452 0.963034 0.2943
1172 4 0.281581 0.999631 0.290994
1473 2 0.338027 0.990884 0.326629
1070 4 0.0529871 0.0370492 0.340037
1068 2 0.0620436 0.0714431 0.334084
673 4 0.0271367 0.160918 0.36301
1406 4 0.10187 0.0888166 0.325926
788 4 0.16104 0.147724 0.356476
786 2 0.178821 0.15474 0.325899
485 4 0.36387 0.0970807 0.347223
363 2 0.394797 0.0867908 0.405881
364 4 0.367558 0.0943642 0.383495
505 4 0.20489 0.24951 0.372766
63 2 0.33767 0.233951 0.392173
1397 4 0.374006 0.174197 0.387443
64 4 0.353006 0.201547 0.396074
1395 2 0.408961 0.17566 0.396185
1396 4 0.443916 0.177123 0.404927
506 4 0.250416 0.281426 0.326827
504 2 0.227653 0.265468 0.349796
65 4 0.322333 0.266354 0.388273
1176 2 0.449271 0.284264 0.351693
1177 4 0.476728 0.261793 0.358142
866 4 0.249533 0.960862 0.425769
629 4 0.373388 0.421301 0.402017
628 4 0.374129 0.490782 0.382697
627 2 0.373758 0.456042 0.392357
453 2 0.254769 0.561105 0.359368
45 3 0.30593 0.499237 0.37001
42 3 0.334562 0.503367 0.415402
43 3 0.32093 0.548183 0.388123
454 4 0.287385 0.55027 0.370286
41 1 0.329762 0.516045 0.385122
44 3 0.358248 0.513602 0.36773
1025 4 0.436399 0.519841 0.32729
679 4 0.118922 0.687498 0.365714
678 2 0.15054 0.694384 0.349799
680 4 0.182154 0.701274 0.333877
666 2 0.245862 0.731367 0.346329
667 4 0.219801 0.70653 0.348266
1258 4 0.191318 0.68942 0.371671
827 4 0.189153 0.729032 0.362741
1257 2 0.201746 0.680663 0.405049
668 4 0.271931 0.756207 0.344388
825 2 0.180748 0.760137 0.378929
826 4 0.172344 0.791245 0.395117
1037 4 0.342217 0.810176 0.381963
1035 2 0.357696 0.842646 0.384524
1036 4 0.373174 0.875115 0.387085
82 4 0.401126 0.926561 0.370939
1122 2 0.104454 0.942809 0.401028
1123 4 0.0979453 0.956896 0.368476
754 4 0.12445 0.971891 0.345584
1475 4 0.31865 0.960472 0.326935
83 4 0.332863 0.920785 0.393488
81 2 0.366994 0.923673 0.382213
1173 2 0.460004 0.939659 0.388768
1175 4 0.426535 0.951 0.381584
1377 2 0.480823 0.619549 0.296362
865 4 0.256448 0.0149971 0.47292
1139 4 0.0116229 0.662498 0.154822
365 4 0.422036 0.0792174 0.428266
892 4 0.0574944 0.107962 0.464009
891 2 0.02507 0.103376 0.448909
563 4 0.0853724 0.108124 0.486186
1460 4 0.081798 0.146875 0.403205
252 2 0.151837 0.160108 0.485025
254 4 0.144504 0.144899 0.45316
1458 2 0.0974227 0.13546 0.433636
1459 4 0.113047 0.124046 0.464066
435 2 0.44255 0.102756 0.474897
436 4 0.453405 0.0752861 0.454209
1298 4 0.447844 0.198296 0.467633
103 4 0.4198 0.219906 0.474742
434 4 0.0717735 0.342755 0.477741
432 2 0.0986912 0.319175 0.473294
433 4 0.125609 0.295594 0.468847
111 2 0.181999 0.288736 0.462121
113 4 0.207009 0.27322 0.441285
829 4 0.299156 0.288475 0.407752
828 2 0.303323 0.3137 0.433182
830 4 0.307491 0.338925 0.458613
1075 4 0.387597 0.398301 0.426465
1074 2 0.357148 0.379788 0.431993
1076 4 0.326699 0.361275 0.437522
620 4 0.0762798 0.576916 0.476921
1433 4 0.333073 0.521413 0.445764
1431 2 0.342094 0.506956 0.477545
618 2 0.0477952 0.591225 0.46006
619 4 0.0193107 0.605533 0.443199
1477 4 0.27464 0.664263 0.454042
1476 2 0.266946 0.643189 0.482274
544 4 0.0638712 0.659914 0.491895
1259 4 0.21217 0.671899 0.438439
353 4 0.224279 0.705226 0.454662
351 2 0.225505 0.739984 0.464192
1465 4 0.394687 0.721513 0.473407
965 4 0.119743 0.844765 0.466884
1462 4 0.133928 0.811467 0.462592
1461 2 0.16631 0.796386 0.457654
352 4 0.226731 0.774741 0.473722
1463 4 0.198692 0.781305 0.452717
1464 2 0.420965 0.743204 0.485213
1466 4 0.447243 0.764895 0.497018
964 4 0.116889 0.916793 0.469228
963 2 0.118316 0.880779 0.468056
1124 4 0.110963 0.928722 0.433579
1501 4 0.46687 0.894309 0.474732
1483 4 0.00327505 0.771915 0.210147
1280 4 0.144118 0.097754 0.0014235
240 2 0.0105222 0.575265 0.994366
1067 4 0.246042 0.982816 0.583997
1503 2 0.283407 0.0163279 0.529638
1505 4 0.294966 0.0339887 0.558876
56 4 0.338169 0.0402713 0.549548
54 2 0.343636 0.0551996 0.581916
1113 2 0.417948 0.0266755 0.509111
1114 4 0.447797 0.00644268 0.509273
561 2 0.0779297 0.11761 0.520172
1343 4 0.0446757 0.147904 0.566772
562 4 0.0704878 0.127096 0.554158
767 4 0.11951 0.110352 0.557867
242 4 0.00955731 0.596646 0.965343
1341 2 0.0276253 0.178825 0.559455
1342 4 0.010575 0.209747 0.552138
253 4 0.159169 0.175316 0.516889
816 2 0.176031 0.20955 0.575519
817 4 0.165023 0.18819 0.548631
104 4 0.414172 0.173873 0.529977
102 2 0.416986 0.19689 0.50236
1417 4 0.486672 0.921182 0.760607
301 4 0.109929 0.404946 0.552846
300 2 0.104319 0.380549 0.526889
302 4 0.0987097 0.356152 0.500932
131 4 0.470572 0.365732 0.545366
1115 4 0.388098 0.0469082 0.508949
129 2 0.462215 0.377662 0.578355
1364 4 0.0806231 0.429146 0.572176
833 4 0.104221 0.457268 0.581447
831 2 0.124126 0.469021 0.553769
832 4 0.14403 0.480774 0.526091
609 2 0.369748 0.461408 0.554557
610 4 0.355885 0.459355 0.52133
1432 4 0.351116 0.492499 0.509325
1050 2 0.284247 0.570039 0.547364
1051 4 0.286989 0.534572 0.55328
325 4 0.229607 0.649561 0.522633
324 2 0.232743 0.652575 0.558431
1052 4 0.281505 0.605506 0.541448
1478 4 0.259253 0.622115 0.510508
545 4 0.115886 0.679251 0.537962
543 2 0.0898785 0.669582 0.514929
933 2 0.390064 0.743113 0.575822
935 4 0.399054 0.708893 0.568851
136 4 0.421471 0.680638 0.564711
718 4 0.281497 0.817393 0.563535
717 2 0.255836 0.794812 0.575026
304 4 0.315227 0.803108 0.555327
1403 4 0.473099 0.815384 0.576872
583 4 0.494247 0.803549 0.558457
1389 2 0.0607913 0.920443 0.525989
1391 4 0.0967881 0.922274 0.527127
1045 4 0.119177 0.840053 0.565926
1044 2 0.122672 0.873928 0.554065
164 4 0.470876 0.897592 0.509233
163 4 0.485945 0.851259 0.562411
162 2 0.478411 0.874425 0.535822
1390 4 0.0247948 0.918613 0.524851
1046 4 0.126167 0.907804 0.542205
566 4 0.14633 0.943564 0.546133
564 2 0.123755 0.963954 0.526768
1423 4 0.216662 0.989804 0.562393
1422 2 0.219401 0.973231 0.530483
1345 4 0.325368 0.949882 0.541387
1344 2 0.356532 0.950984 0.523276
1346 4 0.387696 0.952086 0.505166
138 2 0.161842 0.990318 0.658901
55 4 0.349103 0.0701276 0.614284
958 4 0.342627 0.0498448 0.646894
957 2 0.344981 0.0795288 0.667235
765 2 0.133167 0.0964678 0.588217
766 4 0.146823 0.0825837 0.618567
818 4 0.18704 0.230911 0.602407
414 2 0.241509 0.187105 0.622325
416 4 0.206814 0.179353 0.616281
415 4 0.276204 0.194858 0.62837
1512 2 0.374712 0.194445 0.656884
1514 4 0.397644 0.169518 0.644507
898 4 0.427753 0.916406 0.934779
1299 2 0.402085 0.311078 0.601998
1300 4 0.389256 0.278557 0.610841
881 4 0.141791 0.389379 0.563898
879 2 0.154304 0.376945 0.59535
880 4 0.166818 0.36451 0.626801
870 2 0.295907 0.404362 0.6597
872 4 0.305201 0.393897 0.692934
871 4 0.286613 0.414826 0.626465
1301 4 0.414915 0.343599 0.593154
130 4 0.453858 0.389592 0.611343
734 4 0.450533 0.386206 0.64658
1363 4 0.0447493 0.460727 0.626189
1362 2 0.0626857 0.444936 0.599182
611 4 0.38361 0.46346 0.587784
634 4 0.00706255 0.593733 0.59213
341 4 0.06758 0.681336 0.603596
339 2 0.08868 0.668128 0.629687
340 4 0.10978 0.654919 0.655778
326 4 0.235879 0.655589 0.594229
135 2 0.406497 0.653568 0.583241
137 4 0.391523 0.626498 0.601772
641 4 0.391916 0.707579 0.66125
438 2 0.152722 0.804269 0.62717
439 4 0.125784 0.814906 0.605686
440 4 0.179661 0.793632 0.648656
719 4 0.230176 0.77223 0.586516
344 4 0.237816 0.763478 0.620737
342 2 0.214338 0.763187 0.648107
343 4 0.19086 0.762898 0.675476
305 4 0.366635 0.803068 0.605912
303 2 0.340931 0.803088 0.58062
934 4 0.381073 0.777333 0.582793
1401 2 0.494605 0.811517 0.605559
1065 2 0.22462 0.978709 0.612713
139 4 0.168339 0.95926 0.641767
1066 4 0.203196 0.974602 0.641429
140 4 0.155345 0.0213759 0.676036
959 4 0.347335 0.109213 0.687574
474 2 0.38496 0.0989716 0.742009
475 4 0.359976 0.0908622 0.717301
694 4 0.232797 0.172758 0.732919
1513 4 0.351781 0.219373 0.66926
604 4 0.476164 0.200934 0.749107
1001 4 0.039305 0.305639 0.730106
999 2 0.00411675 0.300682 0.73624
149 4 0.464916 0.284128 0.744296
147 2 0.462167 0.32008 0.743781
148 4 0.459418 0.356033 0.743266
732 2 0.449385 0.365195 0.675865
733 4 0.448238 0.344184 0.705151
1093 4 0.0744942 0.469189 0.743073
188 4 0.454858 0.569193 0.738041
330 2 0.0594178 0.619877 0.694836
331 4 0.029241 0.602276 0.703776
1520 4 0.437936 0.930114 0.970448
332 4 0.089595 0.63748 0.685895
143 4 0.422696 0.624603 0.702635
141 2 0.421692 0.654125 0.681949
186 2 0.439165 0.60166 0.737905
187 4 0.423471 0.634127 0.73777
859 4 0.00795077 0.980691 0.971281
50 3 0.000728804 0.691668 0.73421
49 3 0.00846886 0.688417 0.68056
142 4 0.420688 0.683646 0.661264
639 2 0.380611 0.741093 0.66828
922 4 0.0577636 0.837866 0.714366
921 2 0.0310153 0.823631 0.694814
1210 4 0.0300215 0.798033 0.762708
640 4 0.369307 0.774607 0.67531
1292 4 0.250193 0.853834 0.713563
1496 4 0.220625 0.838405 0.731883
1291 4 0.226237 0.89399 0.658652
1290 2 0.238215 0.873912 0.686108
1412 4 0.469262 0.874354 0.686986
1410 2 0.489417 0.846051 0.677336
268 4 0.142763 0.941334 0.746559
659 4 0.346228 0.963126 0.729616
1149 2 0.385996 0.0404765 0.806545
1150 4 0.381882 0.0142299 0.782161
1479 2 0.462274 0.0915153 0.782486
1480 4 0.43182 0.0722032 0.782439
1351 4 0.456498 0.0418196 0.794517
1350 2 0.456015 0.00786675 0.806659
1349 4 0.0509849 0.207802 0.870311
867 2 0.128787 0.123309 0.840296
869 4 0.140994 0.119397 0.80659
476 4 0.409944 0.10708 0.766716
1481 4 0.492728 0.110828 0.782532
693 2 0.215282 0.193193 0.75692
695 4 0.197768 0.213629 0.780921
1090 4 0.217 0.246937 0.773139
1355 4 0.389537 0.190235 0.812305
1353 2 0.418733 0.19731 0.792357
603 2 0.483226 0.235236 0.757702
1354 4 0.447929 0.204385 0.772408
232 4 0.0493669 0.342588 0.737487
1004 4 0.104478 0.325269 0.78737
1002 2 0.13941 0.32576 0.77843
1089 2 0.205394 0.279043 0.784753
1091 4 0.193787 0.31115 0.796367
1003 4 0.174342 0.326252 0.769489
605 4 0.490288 0.269538 0.766298
231 2 0.0661503 0.348579 0.768838
233 4 0.0829342 0.354568 0.800188
322 4 0.32196 0.337408 0.809479
321 2 0.286013 0.339545 0.811393
1218 2 0.382591 0.348812 0.847742
1219 4 0.352518 0.347724 0.827872
1094 4 0.0194814 0.462914 0.789288
1092 2 0.0469877 0.466052 0.766181
1203 2 0.163688 0.454661 0.79221
1205 4 0.141556 0.461546 0.819835
380 4 0.114466 0.481734 0.832088
1204 4 0.185821 0.447776 0.764584
953 4 0.454737 0.419875 0.749529
951 2 0.481311 0.420933 0.773884
189 2 0.420869 0.490719 0.772833
190 4 0.451035 0.478499 0.788359
914 4 0.459246 0.471919 0.821723
251 4 0.388246 0.795201 0.947148
191 4 0.390702 0.502939 0.757307
1241 4 0.353169 0.539908 0.818188
956 4 0.479692 0.564665 0.76172
901 4 0.0930008 0.650336 0.786728
900 2 0.0732176 0.624467 0.802215
902 4 0.0534343 0.598599 0.817703
704 4 0.0315247 0.592401 0.847794
848 4 0.0921059 0.679036 0.817658
662 4 0.137628 0.633484 0.823863
660 2 0.172025 0.63213 0.81312
1320 2 0.489722 0.665258 0.809783
846 2 0.111188 0.709633 0.818008
847 4 0.130271 0.740228 0.818357
661 4 0.206422 0.630777 0.802378
1321 4 0.454882 0.671963 0.816236
1209 2 0.0652127 0.805891 0.76319
1211 4 0.100404 0.81375 0.763672
290 4 0.137155 0.771064 0.820344
288 2 0.172465 0.764224 0.817738
289 4 0.207777 0.757386 0.815133
1324 4 0.3906 0.783923 0.845818
968 4 0.459842 0.846418 0.783296
565 4 0.101179 0.984342 0.507402
492 2 0.00179075 0.863423 0.758629
1495 4 0.182596 0.856202 0.790523
269 4 0.175464 0.880169 0.766333
1494 2 0.201611 0.847303 0.761203
966 2 0.48104 0.851565 0.754581
1181 4 0.0960338 0.962639 0.812413
1179 2 0.0758845 0.940507 0.832527
267 2 0.159114 0.910752 0.756446
258 2 0.227698 0.959434 0.761467
260 4 0.200385 0.936894 0.754658
259 4 0.25501 0.981974 0.768276
658 4 0.378679 0.968603 0.793793
657 2 0.362453 0.965865 0.761705
1416 2 0.465794 0.930009 0.788653
1352 4 0.455531 0.973915 0.818802
1418 4 0.444916 0.938837 0.816699
52 4 0.99324 0.05491 0.777772
154 4 0.0556064 0.687395 0.988415
1151 4 0.39011 0.0667228 0.83093
782 4 0.36118 0.0567149 0.854576
780 2 0.371816 0.0841957 0.875363
1147 4 0.442789 0.0577352 0.899742
1146 2 0.449659 0.0541355 0.864525
1148 4 0.45653 0.0505352 0.829307
868 4 0.116579 0.127222 0.874001
192 2 0.401489 0.155573 0.865568
193 4 0.37093 0.139388 0.875797
781 4 0.382451 0.111677 0.896149
1347 2 0.0261933 0.196579 0.84665
194 4 0.432048 0.171758 0.85534
95 4 0.0866976 0.320675 0.864638
93 2 0.095807 0.288086 0.877104
94 4 0.104917 0.255497 0.889569
699 2 0.221533 0.315279 0.888888
701 4 0.237406 0.296542 0.862481
1220 4 0.412665 0.349901 0.867612
1365 2 0.0305775 0.351172 0.873253
1366 4 0.0530312 0.323038 0.871086
700 4 0.20566 0.334018 0.915296
323 4 0.250066 0.341682 0.813306
698 4 0.231659 0.368181 0.848171
696 2 0.246644 0.394665 0.867523
697 4 0.261629 0.421148 0.886875
912 2 0.459763 0.48798 0.854005
938 4 0.0104644 0.53422 0.942821
703 4 0.0190304 0.54022 0.895989
379 4 0.065395 0.531394 0.850186
702 2 0.0252775 0.566311 0.871892
378 2 0.0899303 0.506564 0.841137
1407 2 0.105232 0.591078 0.863373
1408 4 0.0867731 0.560472 0.868163
1240 4 0.39266 0.545822 0.878247
1239 2 0.372915 0.542865 0.848218
249 2 0.417284 0.815557 0.953696
396 2 0.485446 0.543261 0.905348
913 4 0.46028 0.504041 0.886288
1409 4 0.12369 0.621685 0.858583
21 1 0.162442 0.646923 0.909431
23 3 0.158539 0.632381 0.879544
24 3 0.194842 0.65326 0.914909
25 3 0.150705 0.627339 0.933042
338 4 0.227349 0.567746 0.902357
774 2 0.483875 0.62307 0.908555
22 3 0.145718 0.675575 0.909682
886 4 0.0716986 0.823457 0.902804
885 2 0.066755 0.790998 0.917717
481 4 0.230639 0.769743 0.842017
480 2 0.238223 0.800576 0.824921
482 4 0.245806 0.831408 0.807826
1325 4 0.363547 0.850211 0.854511
1323 2 0.377073 0.817067 0.850165
39 3 0.447701 0.814498 0.895321
36 1 0.479095 0.816245 0.906777
1180 4 0.0557353 0.918374 0.852641
1318 4 0.0605351 0.904169 0.884891
40 3 0.481819 0.840917 0.928287
899 4 0.362053 0.886926 0.930773
1497 2 0.313419 0.934829 0.886669
1498 4 0.320748 0.961537 0.863573
1499 4 0.30609 0.908122 0.909764
512 4 0.408403 0.955761 0.903649
516 2 0.471696 0.924609 0.902219
510 2 0.420315 0.989566 0.899681
517 4 0.441212 0.93852 0.915544
858 2 0.000550739 0.0159167 0.969095
653 4 0.24145 0.00625291 0.972043
652 4 0.300934 0.0435986 0.955654
651 2 0.271192 0.0249259 0.963849
511 4 0.432227 0.0233705 0.895714
1007 4 0.00295065 0.115449 0.983526
1005 2 0.0372216 0.124695 0.989883
1152 2 0.326139 0.174648 0.994981
1153 4 0.348187 0.146697 0.000731217
1129 4 0.0417886 0.247391 0.00173728
580 4 0.204427 0.225634 0.965181
579 2 0.236895 0.210311 0.968571
1154 4 0.304091 0.202598 0.98923
581 4 0.269363 0.194989 0.971961
1128 2 0.0127018 0.253188 0.981225
1100 4 0.0684013 0.246995 0.975742
1098 2 0.0789327 0.236587 0.94286
1099 4 0.0894642 0.226179 0.909979
514 4 0.143872 0.378308 0.920676
428 4 0.142669 0.412462 0.940577
513 2 0.177078 0.369464 0.93161
515 4 0.210284 0.360619 0.942544
280 4 0.258168 0.370678 0.957835
279 2 0.293968 0.371499 0.962087
427 4 0.148357 0.455656 0.998055
426 2 0.145513 0.434059 0.969316
1504 4 0.271849 0.998667 0.500399
391 4 0.0649965 0.499761 0.991587
1253 4 0.247366 0.49575 0.986177
648 2 0.443122 0.535403 0.975057
649 4 0.465773 0.521664 0.950591
397 4 0.476255 0.577936 0.909036
245 4 0.00974906 0.613635 0.931633
243 2 0.999722 0.63845 0.907464
336 2 0.228574 0.58532 0.933822
337 4 0.229798 0.602894 0.965287
1470 2 0.290659 0.634766 0.964201
1472 4 0.26243 0.616565 0.951075
1471 4 0.318887 0.652967 0.977327
775 4 0.460938 0.650676 0.912055
991 4 0.459569 0.642816 0.947113
153 2 0.0656478 0.72145 0.982107
887 4 0.0618115 0.758539 0.932629
316 4 0.382151 0.708719 0.939154
317 4 0.348156 0.772044 0.933147
315 2 0.365153 0.740382 0.93615
990 2 0.438176 0.67183 0.948093
992 4 0.416783 0.700844 0.949074
155 4 0.0756888 0.755506 0.975799
1518 2 0.470757 0.927402 0.985141
1061 4 0.00447328 0.795585 0.949244
250 4 0.44632 0.835913 0.960245
535 4 0.470045 0.818004 0.953555
37 3 0.486598 0.787685 0.921901
1317 2 0.043147 0.906323 0.91641
1442 4 0.0253788 0.878708 0.970523
1319 4 0.0257589 0.908478 0.947929
897 2 0.394903 0.901666 0.932776
1006 4 0.0714927 0.133942 0.996241
534 2 0.493375 0.833287 0.976415
281 4 0.329768 0.372321 0.966339
923 4 0.00426711 0.809395 0.675262
1381 4 0.47622 0.768394 0.749881
493 4 0.0168364 0.896165 0.760034
1367 4 0.00812326 0.379306 0.87542
398 4 0.494636 0.508586 0.90166
560 4 0.269459 0.707556 0.000903392
503 4 0.96194 0.870212 0.478532
478 4 0.523394 0.0262999 0.0404851
477 2 0.548729 0.0102288 0.0204782
19 3 0.915249 0.0135288 0.0784887
1443 2 0.975419 0.0443657 0.0662999
1444 4 0.940801 0.0405475 0.0756496
215 4 0.717576 0.0960291 0.0655827
213 2 0.682623 0.0981003 0.0742058
664 4 0.745879 0.11755 0.0740378
523 4 0.991678 0.139378 0.0874749
334 4 0.911717 0.212827 0.054841
1294 4 0.721828 0.29073 0.0126003
861 2 0.547108 0.405603 0.0476048
863 4 0.539166 0.398939 0.0821437
1022 4 0.911219 0.366902 0.0865983
80 4 0.987967 0.405087 0.0888877
862 4 0.55505 0.412266 0.0130662
1246 4 0.651238 0.465738 0.0595089
1245 2 0.656423 0.448452 0.0282885
469 4 0.996459 0.357429 0.355196
1109 4 0.924373 0.993532 0.499097
708 2 0.545114 0.638916 0.0626017
710 4 0.563934 0.659333 0.0395938
220 4 0.79414 0.600791 0.00129495
219 2 0.803181 0.611631 0.034478
221 4 0.812222 0.622472 0.0676613
1434 2 0.561132 0.730243 0.0515855
1436 4 0.596524 0.736877 0.0496313
529 4 0.976839 0.671838 0.0596165
528 2 0.962315 0.676416 0.0269287
904 4 0.838048 0.785384 0.0687365
903 2 0.824503 0.777524 0.0362537
905 4 0.810959 0.769664 0.00377028
1511 4 0.502804 0.717628 0.318433
1060 4 0.975348 0.791172 0.0150762
1316 4 0.914694 0.891862 0.0332759
479 4 0.574064 0.994158 0.000471478
655 4 0.656982 0.020752 0.0501782
656 4 0.672481 0.961573 0.0119782
654 2 0.664731 0.991163 0.0310782
86 4 0.587445 0.00648755 0.0932949
1452 2 0.630451 0.0861199 0.139055
1454 4 0.620727 0.0856563 0.104333
214 4 0.647669 0.100172 0.0828291
85 4 0.616071 0.0691549 0.0719612
84 2 0.601758 0.0378211 0.0826279
17 3 0.869277 0.0410747 0.0866234
16 1 0.900396 0.0368626 0.0973253
683 4 0.866471 0.0161402 0.118767
18 3 0.899598 0.0269454 0.129278
20 3 0.916641 0.0652986 0.094819
663 2 0.757251 0.105725 0.106151
665 4 0.768623 0.093901 0.138265
1277 4 0.897407 0.150792 0.125194
1275 2 0.862074 0.158005 0.125355
1276 4 0.826743 0.165218 0.125515
524 4 0.93246 0.161156 0.122412
522 2 0.962069 0.150267 0.104944
333 2 0.92244 0.214437 0.0892335
335 4 0.933162 0.216045 0.123626
706 4 0.908162 0.201956 0.152971
105 2 0.891343 0.278202 0.162908
106 4 0.915357 0.304962 0.160135
1021 4 0.913019 0.30671 0.126288
1020 2 0.912119 0.336806 0.106443
1057 4 0.725818 0.491453 0.116757
1056 2 0.7394 0.46015 0.128421
1058 4 0.752982 0.428846 0.140085
1015 4 0.867904 0.460724 0.168779
1014 2 0.874761 0.489096 0.147603
571 4 0.959524 0.426432 0.0821425
570 2 0.979783 0.454712 0.0916387
572 4 4.27959e-05 0.482992 0.101135
418 4 0.536409 0.526676 0.182187
1016 4 0.881617 0.517468 0.126427
457 4 0.914478 0.524755 0.139182
456 2 0.910587 0.560095 0.145212
709 4 0.526295 0.618499 0.0856101
944 4 0.557145 0.622851 0.110545
942 2 0.577595 0.642788 0.132561
943 4 0.598045 0.662725 0.154577
1085 4 0.627288 0.67314 0.1712
1256 4 0.735269 0.63974 0.113088
1254 2 0.770302 0.633022 0.107802
1255 4 0.805335 0.626305 0.102516
1111 4 0.887144 0.6678 0.0529394
458 4 0.906695 0.595435 0.151242
1435 4 0.52574 0.723609 0.0535396
1112 4 0.917633 0.669478 0.118279
1110 2 0.902389 0.668639 0.085609
1072 4 0.574958 0.786661 0.161481
1359 2 0.710363 0.838417 0.16816
805 4 0.818142 0.782816 0.0974216
804 2 0.807301 0.812377 0.115
182 4 0.983156 0.761877 0.120628
1307 4 0.845287 0.926233 0.47346
1200 2 0.522324 0.839084 0.120342
1202 4 0.545131 0.840596 0.148234
1135 4 0.516664 0.834428 0.165378
1188 2 0.634931 0.90878 0.16064
1189 4 0.618833 0.881483 0.17785
1361 4 0.741176 0.850401 0.153762
806 4 0.796461 0.841939 0.13258
472 4 0.815602 0.87699 0.131582
471 2 0.837362 0.905511 0.127908
1190 4 0.651028 0.936076 0.14343
682 4 0.829259 0.954799 0.111402
473 4 0.859122 0.934032 0.124233
681 2 0.847864 0.985469 0.115084
209 4 0.946568 0.985543 0.165528
207 2 0.940159 0.9501 0.167291
208 4 0.93375 0.914657 0.169053
521 4 0.811692 0.0882921 0.226646
151 4 0.966932 0.03891 0.230879
150 2 0.970565 0.0108532 0.208518
387 2 0.509935 0.124149 0.220301
410 4 0.520515 0.149013 0.174483
389 4 0.521374 0.0937673 0.236004
986 4 0.657916 0.109069 0.200413
1453 4 0.640176 0.086584 0.173778
984 2 0.654856 0.12051 0.234474
520 4 0.762075 0.0859118 0.174356
519 2 0.786884 0.087102 0.200501
707 4 0.966648 0.190835 0.193683
408 2 0.525466 0.184071 0.16764
409 4 0.530417 0.219129 0.160798
133 4 0.529843 0.226067 0.202504
132 2 0.525269 0.22619 0.238274
1264 4 0.659747 0.240737 0.254201
1119 2 0.789254 0.197006 0.148783
1120 4 0.819819 0.178773 0.154596