ITEM: TIMESTEP
1247000
ITEM: NUMBER OF ATOMS
1520
ITEM: BOX BOUNDS pp pp pp
-6.9326749999999997e+00 6.9326749999999997e+00
-6.9326749999999997e+00 6.9326749999999997e+00
-6.9326749999999997e+00 6.9326749999999997e+00
ITEM: ATOMS id type xs ys zs
385 4 0.145335 0.0380991 0.00236423
384 2 0.138614 0.0223996 0.0341255
799 4 0.498705 0.868409 0.467428
533 4 0.296876 0.000520522 0.0249813
632 4 0.32936 0.949573 0.0992975
531 2 0.270774 0.021691 0.011909
480 2 0.123101 0.14417 0.0280364
195 2 0.487248 0.334774 0.322935
433 4 0.208515 0.143218 0.0761954
398 4 0.0100461 0.560059 0.286625
45 3 0.317788 0.213127 0.0415829
179 4 0.49941 0.0517429 0.317656
694 4 0.273129 0.312163 0.0139016
59 4 0.492802 0.108688 0.0448179
984 2 0.0386901 0.222317 0.0129194
985 4 0.0506597 0.225255 0.046809
1253 4 0.0764083 0.245153 0.0233644
1251 2 0.0960013 0.255733 0.0517301
432 2 0.233123 0.145897 0.0499709
434 4 0.25773 0.148575 0.0237471
41 1 0.305612 0.187049 0.0574107
43 3 0.31032 0.19047 0.0903658
44 3 0.320536 0.159123 0.0465764
42 3 0.273059 0.184837 0.0514002
404 4 0.433392 0.208169 0.015635
402 2 0.438664 0.238697 0.034091
1252 4 0.115594 0.266312 0.0800961
1180 4 0.128464 0.289995 0.0530711
643 4 0.146525 0.303088 0.00377807
155 4 0.00183507 0.246758 0.44925
1019 4 0.00136062 0.246706 0.485009
403 4 0.443936 0.269226 0.0525467
1354 4 0.349873 0.511422 0.0716356
1421 4 0.490444 0.67553 0.254869
1467 2 0.141488 0.591207 0.0200451
1468 4 0.119549 0.612551 0.0391114
1144 4 0.0132875 0.0467365 0.360631
1469 4 0.163426 0.569863 0.000978788
1353 2 0.371246 0.511543 0.0425891
1355 4 0.392616 0.511662 0.0135447
1100 4 0.491994 0.553256 0.0698833
741 2 0.479568 0.281042 0.102532
21 1 0.313139 0.6262 0.0838858
25 3 0.28773 0.631155 0.0636713
23 3 0.323872 0.594617 0.0812059
316 4 0.332885 0.641054 0.0405673
52 4 0.14317 0.694218 0.165338
51 2 0.147956 0.719086 0.139664
22 3 0.337879 0.646677 0.0755621
315 2 0.349709 0.668118 0.0236904
1460 4 0.392209 0.717325 0.0226195
1458 2 0.413738 0.746004 0.0188195
1325 4 0.492804 0.711541 0.039952
636 2 0.0420364 0.814309 0.0628539
638 4 0.0744696 0.829716 0.0595185
1223 4 0.112026 0.824359 0.0556174
637 4 0.00960414 0.798902 0.0661894
796 4 0.225357 0.805607 0.0608057
1302 2 0.20321 0.764419 0.10402
1304 4 0.222355 0.768555 0.0737418
196 4 0.49649 0.301515 0.312502
944 4 0.347604 0.767116 0.0743965
1516 4 0.458587 0.795971 0.0261845
1515 2 0.44708 0.827385 0.0127262
1517 4 0.435574 0.858799 0.999267
1459 4 0.435266 0.774682 0.0150189
1221 2 0.145169 0.837983 0.0515743
1222 4 0.178312 0.851608 0.0475319
1013 4 0.495782 0.263122 0.318943
742 4 0.49731 0.26866 0.131382
386 4 0.131894 0.00669894 0.0658866
889 4 0.170737 0.939635 0.0728597
492 2 0.269951 0.907518 0.0482524
494 4 0.237985 0.923054 0.0543615
493 4 0.301915 0.891984 0.0421428
294 2 0.0725136 0.017788 0.0955528
191 4 0.00214193 0.0416644 0.115374
296 4 0.101996 0.999005 0.0866981
331 4 0.216238 0.0506814 0.204975
332 4 0.27609 0.0266103 0.172727
330 2 0.246164 0.0386463 0.188851
630 2 0.306792 0.974336 0.0859603
631 4 0.284223 0.999099 0.072624
1015 4 0.0655895 0.128142 0.106807
1014 2 0.084634 0.104855 0.126692
1016 4 0.103678 0.0815664 0.146577
1010 4 0.133185 0.0849198 0.166987
601 4 0.316306 0.167918 0.160465
602 4 0.347429 0.187793 0.0985139
600 2 0.331867 0.177855 0.129489
1179 2 0.154677 0.299493 0.0759433
1181 4 0.180889 0.308989 0.0988149
518 4 0.350836 0.31788 0.150164
516 2 0.370539 0.300951 0.175176
743 4 0.461825 0.293423 0.0736822
205 4 0.0385234 0.377539 0.110188
204 2 0.0718029 0.377906 0.124071
1255 4 0.025495 0.349931 0.129025
826 4 0.105183 0.346334 0.155429
206 4 0.105083 0.378273 0.137954
18 3 0.173526 0.523875 0.181473
490 4 0.453413 0.490963 0.11151
489 2 0.480553 0.509658 0.126152
1470 2 0.233616 0.642174 0.103355
1472 4 0.198279 0.6445 0.11016
1471 4 0.268953 0.639848 0.096549
24 3 0.304016 0.632527 0.115455
795 2 0.242144 0.798162 0.0297705
353 4 0.479883 0.634809 0.109636
1098 2 0.499088 0.582416 0.0898774
53 4 0.152743 0.743954 0.113992
352 4 0.483416 0.696494 0.0724331
351 2 0.481649 0.665651 0.0910344
1303 4 0.184064 0.760284 0.134299
942 2 0.344754 0.731466 0.0790177
873 2 0.305819 0.834965 0.147729
943 4 0.341903 0.695815 0.0836384
874 4 0.277381 0.857026 0.149969
428 4 0.487104 0.806971 0.105159
426 2 0.47533 0.774555 0.115695
1052 4 0.14711 0.898196 0.132384
1050 2 0.116109 0.91493 0.124687
70 4 0.271355 0.793378 0.170069
875 4 0.334257 0.812904 0.145488
1372 4 0.497805 0.911454 0.128914
295 4 0.0430347 0.0365708 0.104407
674 4 0.0143417 0.0395825 0.0829682
1051 4 0.0851079 0.931666 0.11699
888 2 0.206196 0.941694 0.0790888
890 4 0.241655 0.943753 0.0853172
1371 2 0.494241 0.925136 0.0957413
194 4 0.0647148 0.0436377 0.198118
184 4 0.311731 0.0141707 0.267796
192 2 0.0571694 0.0785243 0.203258
193 4 0.0496245 0.113411 0.208398
199 4 0.0712363 0.141884 0.215033
1009 4 0.201949 0.0650308 0.175795
1008 2 0.167567 0.0749752 0.171391
692 4 0.283518 0.165165 0.171603
690 2 0.290381 0.139897 0.196399
1259 4 0.0208132 0.320981 0.268403
456 2 0.245303 0.323848 0.227699
517 4 0.390241 0.284022 0.200188
521 4 0.423244 0.298108 0.19576
519 2 0.444199 0.285378 0.222204
520 4 0.465153 0.272647 0.248648
1257 2 0.0513503 0.337845 0.259263
270 2 0.0671687 0.422499 0.222659
272 4 0.0825732 0.39394 0.238424
1258 4 0.0818931 0.354721 0.250122
825 2 0.107665 0.357089 0.18976
827 4 0.110138 0.367856 0.224091
830 4 0.121949 0.405394 0.23414
115 4 0.210477 0.357395 0.215736
114 2 0.178053 0.365114 0.2295
457 4 0.238579 0.341276 0.196853
271 4 0.0517723 0.451047 0.206898
828 2 0.143107 0.434529 0.236313
829 4 0.164257 0.463655 0.238488
324 2 0.208688 0.548839 0.305192
17 3 0.17462 0.470056 0.175085
1484 4 0.388738 0.457228 0.215066
1483 4 0.364362 0.422627 0.156669
1482 2 0.37655 0.439928 0.185867
1406 4 0.351798 0.48003 0.249242
960 2 0.428075 0.490403 0.21216
962 4 0.464047 0.490036 0.214655
358 4 0.480893 0.464203 0.234195
1084 4 0.0262219 0.595126 0.200358
819 2 0.422338 0.926607 0.473143
1083 2 0.0340161 0.566328 0.180103
20 3 0.206226 0.493134 0.212043
16 1 0.176908 0.494586 0.197306
19 3 0.152547 0.490967 0.219963
325 4 0.231775 0.575869 0.311257
67 4 0.258377 0.554319 0.194328
66 2 0.240717 0.585744 0.195336
1080 2 0.483266 0.609027 0.221499
936 2 0.221831 0.672632 0.186556
68 4 0.223058 0.61717 0.196344
937 4 0.230192 0.641903 0.169638
938 4 0.213469 0.70336 0.203475
1279 4 0.223006 0.709457 0.241907
1278 2 0.205359 0.736955 0.226648
71 4 0.20984 0.79599 0.207631
69 2 0.240598 0.794684 0.18885
1280 4 0.187712 0.764453 0.211388
821 4 0.412503 0.950134 0.447645
1401 2 0.0117972 0.962002 0.203238
427 4 0.463554 0.74214 0.126231
1403 4 0.0315107 0.931819 0.202377
766 4 0.15701 0.0451143 0.305796
765 2 0.139349 0.0283236 0.279215
767 4 0.121688 0.011532 0.252634
1186 4 0.243866 0.980065 0.304432
185 4 0.318641 0.0696714 0.313332
183 2 0.315186 0.0419208 0.290564
482 4 0.13115 0.136223 0.062278
177 2 0.468301 0.035199 0.325334
198 2 0.0701196 0.155277 0.248496
200 4 0.0690035 0.16867 0.281959
318 2 0.177922 0.118736 0.353456
319 4 0.196379 0.148842 0.346149
691 4 0.297243 0.114628 0.221195
774 2 0.250062 0.175328 0.28946
776 4 0.222997 0.154938 0.301792
187 4 0.333439 0.157326 0.300417
178 4 0.437193 0.018656 0.333012
232 4 0.0876801 0.14978 0.306661
231 2 0.0862581 0.154699 0.342357
307 4 0.158694 0.243012 0.277124
306 2 0.183143 0.226614 0.256295
620 4 0.281787 0.22165 0.256942
775 4 0.277129 0.195719 0.277128
618 2 0.266752 0.250908 0.271718
57 2 0.490736 0.126888 0.0137551
678 2 0.131117 0.3071 0.256395
679 4 0.1414 0.272686 0.259615
308 4 0.207591 0.210218 0.235466
907 4 0.242774 0.29413 0.322275
458 4 0.252028 0.30642 0.258545
619 4 0.251718 0.280167 0.286493
159 2 0.0540182 0.404768 0.299481
161 4 0.0727922 0.384136 0.276616
160 4 0.0352494 0.425399 0.32234
680 4 0.120835 0.341513 0.253179
116 4 0.14563 0.372837 0.24327
667 4 0.111054 0.37962 0.263619
666 2 0.129102 0.38527 0.294346
668 4 0.147138 0.390919 0.325057
1451 4 0.444735 0.365067 0.318135
1449 2 0.412325 0.380398 0.314262
197 4 0.478005 0.368033 0.333369
1104 2 0.161683 0.473629 0.315789
1105 4 0.195497 0.485506 0.311789
326 4 0.185602 0.521809 0.299126
1405 4 0.35346 0.465774 0.319922
961 4 0.392101 0.49077 0.209665
1404 2 0.352628 0.472902 0.284582
443 4 0.399675 0.47935 0.376752
396 2 0.0346564 0.556113 0.312686
397 4 0.0592666 0.552167 0.338747
1081 4 0.453132 0.623353 0.235179
839 4 0.116832 0.555202 0.336886
1480 4 0.497 0.646525 0.342879
1479 2 0.488862 0.667692 0.314839
1183 4 0.238117 0.710547 0.31027
1511 4 0.129078 0.67386 0.324381
286 4 0.329937 0.700305 0.287807
1182 2 0.273836 0.715424 0.311124
1184 4 0.309556 0.720301 0.311977
287 4 0.37656 0.754046 0.29965
285 2 0.353249 0.727176 0.293728
1115 4 0.410292 0.764114 0.288091
1481 4 0.480725 0.688858 0.286801
553 4 0.363839 0.814027 0.360775
1113 2 0.410771 0.793544 0.308924
1114 4 0.411251 0.822974 0.329758
1185 2 0.241589 0.995706 0.272019
1187 4 0.239311 0.0113467 0.239607
472 4 0.42132 0.873486 0.344961
1143 2 0.0119076 0.0774164 0.341728
165 2 0.105665 0.56905 0.48619
897 2 0.136565 0.0340664 0.388607
320 4 0.159466 0.0886301 0.360763
899 4 0.1347 0.0664023 0.372754
1145 4 0.0105271 0.108096 0.322827
186 2 0.324014 0.136619 0.328395
188 4 0.31459 0.115912 0.356375
401 4 0.342964 0.0978183 0.379095
500 4 0.330961 0.135589 0.387935
233 4 0.0848364 0.159617 0.378053
1070 4 0.201754 0.241925 0.38976
930 2 0.064058 0.303409 0.34995
932 4 0.067703 0.337609 0.360785
1068 2 0.205927 0.260573 0.359179
1069 4 0.2101 0.279222 0.328597
906 2 0.258787 0.325335 0.313893
908 4 0.274799 0.35654 0.305512
1342 4 0.0071725 0.344183 0.396515
931 4 0.0604142 0.269207 0.339117
565 4 0.098751 0.387135 0.436485
257 4 0.179055 0.39982 0.338819
651 2 0.130386 0.433053 0.419028
256 4 0.211067 0.352253 0.38257
255 2 0.195061 0.376036 0.360694
1450 4 0.379916 0.395729 0.31039
1107 2 0.417157 0.412897 0.419123
1109 4 0.390677 0.406413 0.442726
1108 4 0.443639 0.419381 0.39552
390 2 0.496247 0.417448 0.419386
392 4 0.468966 0.441027 0.418963
1487 4 0.0585932 0.46138 0.319322
1106 4 0.12787 0.461754 0.319788
652 4 0.124979 0.468109 0.412526
1485 2 0.0861469 0.465892 0.342144
1486 4 0.113703 0.470404 0.364967
328 4 0.222347 0.442835 0.340717
329 4 0.264769 0.485013 0.381003
327 2 0.243559 0.463925 0.36086
441 2 0.395172 0.51466 0.370972
442 4 0.39067 0.549969 0.365193
837 2 0.104976 0.587162 0.348653
838 4 0.0931216 0.619121 0.36042
577 4 0.19313 0.641521 0.405599
706 4 0.092007 0.656183 0.373971
1510 4 0.164375 0.652453 0.383521
576 2 0.217083 0.616859 0.394716
578 4 0.241036 0.592196 0.383834
208 4 0.256343 0.594267 0.353272
207 2 0.289786 0.607403 0.356335
209 4 0.32323 0.620538 0.359397
437 4 0.401802 0.634112 0.454456
705 2 0.088939 0.646483 0.408568
707 4 0.0858703 0.636783 0.443164
1509 2 0.146726 0.663157 0.353951
798 2 0.474162 0.860122 0.442341
785 4 0.21825 0.931253 0.393214
783 2 0.245865 0.95147 0.404577
536 4 0.238272 0.909242 0.413077
732 2 0.307928 0.834164 0.349445
734 4 0.281723 0.854899 0.363002
552 2 0.388885 0.826941 0.383276
473 4 0.429731 0.938518 0.374992
554 4 0.413932 0.839856 0.405778
733 4 0.334133 0.81343 0.335889
800 4 0.449618 0.851835 0.417253
784 4 0.273479 0.971687 0.415939
524 4 0.38168 0.955203 0.421186
471 2 0.425526 0.906002 0.359976
1174 4 0.106316 0.973392 0.473547
898 4 0.138431 0.00173048 0.404459
1175 4 0.162504 0.987048 0.430441
1173 2 0.134411 0.98022 0.451994
225 2 0.19024 0.063703 0.48185
677 4 0.103413 0.505071 0.496192
400 4 0.351727 0.0298424 0.401554
399 2 0.347347 0.0638295 0.390325
523 4 0.368383 0.0250766 0.433129
522 2 0.375031 0.99014 0.427157
1322 4 0.435125 0.067004 0.492079
815 4 0.013002 0.114722 0.47943
979 4 0.103559 0.208334 0.419301
911 4 0.200972 0.186151 0.433164
226 4 0.204181 0.081502 0.453755
909 2 0.198295 0.150542 0.438181
910 4 0.195617 0.114931 0.443198
673 4 0.00406266 0.0259598 0.0128978
498 2 0.337835 0.166212 0.405698
1518 2 0.374105 0.0992791 0.498146
1520 4 0.401224 0.0783164 0.486943
978 2 0.136021 0.200206 0.432741
980 4 0.168482 0.192079 0.44618
499 4 0.34471 0.196833 0.423461
1238 4 0.357735 0.210631 0.455708
1236 2 0.381757 0.214139 0.482374
672 2 0.00920145 0.0327705 0.047935
1369 4 0.36779 0.360647 0.47421
566 4 0.04235 0.354374 0.405705
564 2 0.0705505 0.370754 0.421095
653 4 0.135792 0.397997 0.425531
1368 2 0.35086 0.341423 0.448831
1370 4 0.333929 0.322199 0.42345
88 4 0.185772 0.501732 0.464551
1171 4 0.319598 0.446439 0.447522
1170 2 0.32273 0.463186 0.479305
548 4 0.0156164 0.00891927 0.352817
1373 4 0.490678 0.938819 0.0625671
89 4 0.113789 0.501381 0.460071
87 2 0.14978 0.501556 0.462311
167 4 0.140228 0.571669 0.476236
1227 2 0.327889 0.576747 0.463423
1228 4 0.324591 0.560171 0.431568
1229 4 0.331186 0.593325 0.495277
1154 4 0.428383 0.653763 0.438544
1152 2 0.464214 0.657582 0.439955
530 4 0.121023 0.730692 0.470689
91 4 0.488627 0.0916657 0.109003
435 2 0.38762 0.666559 0.447634
436 4 0.373438 0.699005 0.440812
832 4 0.373883 0.727399 0.464616
831 2 0.393431 0.745079 0.489227
528 2 0.10335 0.755115 0.4509
529 4 0.0856782 0.779538 0.43111
535 4 0.25415 0.84284 0.436323
1189 4 0.260856 0.808653 0.430283
1190 4 0.293476 0.802613 0.494323
1188 2 0.277166 0.805633 0.462304
90 2 0.45322 0.0984457 0.109881
380 4 0.493378 0.525962 0.0463925
534 2 0.246211 0.876041 0.4247
820 4 0.432172 0.903079 0.498641
92 4 0.417812 0.105225 0.110759
104 4 0.0264721 0.457868 0.235571
1085 4 0.0418109 0.537529 0.159847
956 4 0.280504 0.285082 0.492458
1022 4 0.036246 0.0469569 0.00993302
613 4 0.448888 0.319307 0.497573
55 4 0.40144 0.452333 0.49508
166 4 0.0711044 0.566429 0.496142
693 2 0.304101 0.295903 0.00513975
95 4 0.0913366 0.465379 0.00816064
317 4 0.366534 0.695183 0.00681324
813 2 0.0233747 0.101073 0.511156
697 4 0.0520434 0.0165314 0.565534
814 4 0.0337482 0.0874235 0.542881
1320 2 0.456563 0.0492876 0.515034
1321 4 0.478001 0.0315711 0.537989
1208 4 0.491439 0.0101499 0.838356
895 4 0.0895807 0.0870275 0.597326
1096 4 0.177146 0.137355 0.536098
63 2 0.114317 0.246223 0.507688
64 4 0.0784376 0.242646 0.507131
1095 2 0.198869 0.161775 0.520861
1097 4 0.220593 0.186195 0.505624
1407 2 0.25523 0.205483 0.560049
1408 4 0.220508 0.195792 0.559085
1237 4 0.405779 0.217648 0.509039
1339 4 0.35004 0.251312 0.613667
1338 2 0.340776 0.230685 0.585576
588 2 0.171259 0.294888 0.523958
1211 4 0.019871 0.571218 0.673404
589 4 0.169871 0.329512 0.513976
719 4 0.205247 0.347392 0.521937
955 4 0.328927 0.309045 0.540238
954 2 0.304715 0.297063 0.516348
833 4 0.412979 0.762759 0.513839
180 2 0.303932 0.334759 0.591392
484 4 0.039899 0.681847 0.62447
713 4 0.0154526 0.543312 0.517709
612 2 0.479736 0.317894 0.516196
718 4 0.243388 0.339856 0.582684
717 2 0.224317 0.343624 0.55231
182 4 0.272509 0.346268 0.60483
916 4 0.361836 0.363388 0.50535
915 2 0.36306 0.341749 0.534171
56 4 0.395794 0.381782 0.50895
1284 2 0.0862097 0.432521 0.613637
1285 4 0.0749808 0.452835 0.586039
675 2 0.0975124 0.486801 0.526717
676 4 0.0916116 0.46853 0.557243
479 4 0.428615 0.471568 0.510785
54 2 0.398617 0.417057 0.502015
532 4 0.244671 0.0428621 0.998836
1020 2 0.0197507 0.0658987 0.984057
1246 4 0.2979 0.501109 0.522726
1245 2 0.318287 0.529925 0.530101
1247 4 0.338675 0.558741 0.537477
477 2 0.437181 0.505376 0.519956
478 4 0.445747 0.539182 0.529127
1172 4 0.325861 0.479935 0.511086
1021 4 0.0032552 0.0848406 0.958183
1025 4 0.189825 0.573229 0.55383
1023 2 0.166552 0.546334 0.559782
1024 4 0.143279 0.519438 0.565733
543 2 0.0930391 0.696033 0.525277
544 4 0.0737127 0.674739 0.547037
1167 2 0.391242 0.733462 0.569417
1168 4 0.399696 0.715003 0.599219
1169 4 0.382789 0.751923 0.539615
1026 2 0.328953 0.822393 0.532782
1028 4 0.326605 0.799973 0.504635
876 2 0.0555351 0.90158 0.541685
877 4 0.0796425 0.877922 0.529054
1027 4 0.331302 0.844813 0.560929
263 4 0.338757 0.880391 0.512256
261 2 0.364874 0.903772 0.520726
696 2 0.0365279 0.987625 0.550565
878 4 0.0314276 0.925238 0.554316
698 4 0.0210123 0.958718 0.535596
262 4 0.390989 0.927154 0.529193
894 2 0.117575 0.0830712 0.619711
896 4 0.145569 0.0791143 0.642095
9 3 0.446818 0.0424782 0.65056
1299 2 0.068158 0.144053 0.559936
1301 4 0.074855 0.112202 0.575461
1505 4 0.262934 0.167267 0.638256
574 4 0.060308 0.698333 0.980712
1300 4 0.0614605 0.175905 0.544411
606 2 0.124981 0.227524 0.673622
608 4 0.108086 0.243551 0.646088
224 4 0.29872 0.923513 0.926641
607 4 0.141875 0.211497 0.701156
1409 4 0.289952 0.215173 0.561014
1340 4 0.331511 0.210058 0.557484
1074 2 0.400213 0.176759 0.641259
883 4 0.448399 0.162027 0.592432
1076 4 0.428051 0.161349 0.624288
882 2 0.482722 0.153179 0.585795
164 4 0.277761 0.285964 0.607928
162 2 0.248528 0.28731 0.629
163 4 0.219295 0.288657 0.650072
181 4 0.335353 0.323251 0.577954
917 4 0.364285 0.32011 0.562992
1375 4 0.422452 0.345368 0.65718
1374 2 0.430847 0.377382 0.6715
1286 4 0.0974382 0.412206 0.641235
959 4 0.173135 0.378644 0.645233
957 2 0.196627 0.351566 0.641326
958 4 0.22012 0.324487 0.637419
214 4 0.0215706 0.473204 0.631109
1210 4 0.02788 0.504985 0.646008
1209 2 0.0238751 0.538101 0.659705
624 2 0.492701 0.553949 0.59186
626 4 0.460125 0.563295 0.579537
65 4 0.150196 0.249801 0.508246
483 2 0.0149556 0.703789 0.610441
708 2 0.291014 0.805459 0.641358
710 4 0.322528 0.79088 0.631625
709 4 0.2595 0.820037 0.651091
1489 4 0.450893 0.753245 0.63263
929 4 0.182127 0.725551 0.57706
928 4 0.205305 0.793719 0.572866
927 2 0.193716 0.759635 0.574963
1490 4 0.386026 0.748403 0.663782
1488 2 0.418459 0.750824 0.648205
1462 4 0.099339 0.884324 0.603141
1385 4 0.311367 0.849112 0.596608
1383 2 0.297745 0.88025 0.608663
1384 4 0.284124 0.911387 0.620719
105 2 0.442257 0.885636 0.643782
107 4 0.443344 0.91671 0.625517
1461 2 0.0725405 0.90156 0.620027
1463 4 0.0457431 0.918797 0.636914
1454 4 0.0229619 0.948398 0.634575
1213 4 0.293336 0.998885 0.662563
1212 2 0.308874 0.977002 0.638478
1214 4 0.324413 0.955118 0.614392
395 4 0.155728 0.0755234 0.674975
476 4 0.421919 0.0411474 0.69032
6 1 0.449605 0.0725756 0.664924
10 3 0.442861 0.0703566 0.696992
7 3 0.480693 0.0834835 0.661025
393 2 0.133897 0.0803394 0.70327
394 4 0.112066 0.0851558 0.731566
1503 2 0.285354 0.176764 0.664856
8 3 0.428644 0.0941905 0.650317
1091 4 0.0230005 0.238692 0.688295
362 4 0.119017 0.139694 0.753126
360 2 0.144273 0.164262 0.745453
361 4 0.169528 0.188832 0.737779
851 4 0.195682 0.212807 0.734283
849 2 0.224628 0.233554 0.728614
850 4 0.253575 0.2543 0.722944
1504 4 0.307774 0.186261 0.691457
1075 4 0.372374 0.192168 0.65823
15 3 0.354045 0.169685 0.743814
12 3 0.385698 0.206692 0.720882
11 1 0.358802 0.18771 0.716771
14 3 0.363624 0.167679 0.690399
1519 4 0.346986 0.120242 0.509349
291 2 0.434997 0.0875025 0.95689
407 4 0.0485914 0.311318 0.731683
405 2 0.0800312 0.324237 0.719638
1089 2 0.0293963 0.273794 0.693523
1090 4 0.035793 0.308897 0.69875
406 4 0.111471 0.337155 0.707594
230 4 0.270774 0.283291 0.712605
228 2 0.298472 0.260312 0.714882
229 4 0.326171 0.237336 0.717158
13 3 0.33233 0.207469 0.711417
661 4 0.161566 0.971436 0.970302
934 4 0.452093 0.399653 0.581698
1376 4 0.43924 0.409396 0.68582
1396 4 0.162811 0.0485951 0.937388
1157 4 0.0318691 0.447097 0.70845
551 4 0.100467 0.49584 0.703359
549 2 0.103662 0.50471 0.738165
926 4 0.12949 0.471061 0.705643
925 4 0.198087 0.48213 0.686316
924 2 0.163789 0.476594 0.695979
639 2 0.485077 0.450426 0.708495
152 4 0.238976 0.566571 0.694757
1242 2 0.373671 0.521728 0.721299
1244 4 0.342588 0.524183 0.739416
150 2 0.241429 0.59988 0.681158
151 4 0.243882 0.633188 0.667559
1243 4 0.404754 0.519273 0.70318
597 2 0.436002 0.752156 0.739874
599 4 0.445289 0.717409 0.737265
447 2 0.415942 0.834178 0.507674
592 4 0.432792 0.684919 0.723708
702 2 0.102563 0.782971 0.775888
703 4 0.138146 0.77863 0.779814
683 4 0.409002 0.844342 0.739132
681 2 0.424082 0.83366 0.708166
598 4 0.426714 0.786902 0.742482
50 3 0.294482 0.932427 0.659159
47 3 0.29417 0.882742 0.679864
49 3 0.318174 0.922995 0.707102
46 1 0.292608 0.915104 0.687003
869 4 0.308777 0.888825 0.71436
867 2 0.317276 0.861172 0.73589
682 4 0.439161 0.822978 0.677199
106 4 0.44117 0.854561 0.662046
1441 4 0.0599648 0.947715 0.702515
1440 2 0.0837044 0.962884 0.680004
755 4 0.140899 0.989608 0.660705
1442 4 0.107445 0.978053 0.657494
754 4 0.173578 0.975439 0.723419
753 2 0.157238 0.982523 0.692062
48 3 0.263585 0.921391 0.702432
879 2 0.262453 0.00403629 0.747098
880 4 0.264958 0.997775 0.782523
475 4 0.399941 0.975326 0.709972
474 2 0.41093 0.00823658 0.700146
260 4 0.143755 0.963631 0.744048
1328 4 0.436143 0.948016 0.787306
1326 2 0.427588 0.980795 0.774946
950 4 0.111143 0.109051 0.760145
948 2 0.11211 0.11157 0.796105
949 4 0.113078 0.114087 0.832065
1477 4 0.377365 0.0973948 0.779622
1476 2 0.365978 0.0895872 0.812936
290 4 0.0844609 0.237552 0.889445
85 4 0.47767 0.23121 0.854907
241 4 0.122563 0.320526 0.760583
1117 4 0.31173 0.315471 0.776776
559 4 0.346798 0.325471 0.790452
242 4 0.140242 0.352227 0.822906
240 2 0.131403 0.336377 0.791744
558 2 0.380746 0.332357 0.780425
560 4 0.414694 0.339243 0.770398
1359 2 0.0970711 0.49988 0.817903
550 4 0.106857 0.51358 0.772972
803 4 0.0490902 0.464604 0.853078
1155 2 0.0251571 0.441083 0.743367
1360 4 0.126478 0.51566 0.804244
848 4 0.174748 0.465212 0.782358
846 2 0.19722 0.438945 0.772092
847 4 0.219693 0.412677 0.761826
641 4 0.457944 0.454367 0.731917
863 4 0.251986 0.603953 0.751935
416 4 0.146337 0.55457 0.777916
414 2 0.179099 0.549213 0.791999
415 4 0.211862 0.543856 0.806081
861 2 0.26352 0.621156 0.781455
964 4 0.385265 0.576294 0.828584
347 4 0.351354 0.590484 0.837772
963 2 0.408887 0.579192 0.801491
965 4 0.432509 0.582091 0.774398
148 4 0.0550144 0.625643 0.848193
862 4 0.275055 0.638359 0.810975
346 4 0.309751 0.639723 0.805423
382 4 0.350773 0.643212 0.743554
345 2 0.330553 0.615103 0.821598
593 4 0.38678 0.63468 0.747387
611 4 0.456189 0.611502 0.780902
609 2 0.457241 0.64457 0.795249
383 4 0.316348 0.696278 0.778204
1432 4 0.328181 0.72794 0.773764
381 2 0.333561 0.669745 0.760879
591 2 0.409786 0.659799 0.735547
1431 2 0.316464 0.758418 0.758459
610 4 0.458293 0.677639 0.809595
704 4 0.0669798 0.787311 0.771962
657 2 0.159933 0.740005 0.860014
659 4 0.182639 0.742015 0.832072
1433 4 0.304749 0.788895 0.743154
237 2 0.38616 0.803632 0.79417
238 4 0.364179 0.784999 0.77249
82 4 0.437634 0.811255 0.834052
81 2 0.460834 0.787229 0.820452
868 4 0.325774 0.833519 0.757418
258 2 0.133002 0.98968 0.766547
259 4 0.122248 0.0157314 0.789045
881 4 0.259948 0.0102972 0.711673
1327 4 0.419033 0.0135731 0.762586
452 4 0.0634168 0.924799 0.899954
768 2 0.0192003 0.00809327 0.872551
770 4 0.0512193 0.996971 0.88486
1206 2 0.494512 0.0100456 0.874285
1207 4 0.497585 0.00994101 0.910216
170 4 0.0859955 0.138645 0.870409
1478 4 0.35459 0.081781 0.846249
284 4 0.364449 0.0838395 0.879227
282 2 0.36457 0.101863 0.910461
169 4 0.0721903 0.209421 0.871732
168 2 0.0790933 0.174033 0.87107
288 2 0.11164 0.249107 0.868752
1132 4 0.37391 0.217447 0.917128
86 4 0.417124 0.198923 0.877119
84 2 0.447396 0.215066 0.866013
227 4 0.176301 0.0459046 0.509944
289 4 0.13882 0.260664 0.848059
542 4 0.166452 0.269663 0.873113
540 2 0.178371 0.284233 0.903872
203 4 0.236021 0.307923 0.844534
201 2 0.204301 0.323941 0.838393
1116 2 0.283808 0.322095 0.798614
1118 4 0.255887 0.328719 0.820453
1133 4 0.381897 0.289013 0.921156
1131 2 0.377904 0.25323 0.919142
202 4 0.172582 0.339959 0.832253
782 4 0.254727 0.381649 0.893549
808 4 0.368567 0.324819 0.916955
807 2 0.372822 0.360334 0.912367
118 4 0.491493 0.445169 0.889931
660 2 0.151604 0.95301 0.940949
1361 4 0.0676631 0.4841 0.831562
801 2 0.0217665 0.442535 0.861248
781 4 0.223481 0.446228 0.900969
780 2 0.239104 0.413938 0.897259
373 4 0.335614 0.476814 0.850021
887 4 0.21292 0.549825 0.882401
374 4 0.327427 0.480122 0.921601
983 4 0.346806 0.564476 0.9354
372 2 0.331521 0.478467 0.885811
147 2 0.0727729 0.629461 0.81704
149 4 0.0905314 0.633279 0.785888
885 2 0.226376 0.580465 0.895837
981 2 0.352517 0.598359 0.924458
982 4 0.358227 0.632242 0.913516
922 4 0.400163 0.700354 0.932314
252 2 0.277166 0.682666 0.906096
1381 4 0.298473 0.730171 0.897779
1380 2 0.333559 0.738014 0.894967
253 4 0.298736 0.704888 0.924571
1382 4 0.368643 0.745858 0.892156
1000 4 0.492733 0.70343 0.924631
658 4 0.137227 0.737995 0.887956
1202 4 0.415172 0.828585 0.900735
1367 4 0.487599 0.777766 0.930538
448 4 0.412778 0.869377 0.500505
239 4 0.408142 0.822266 0.81585
502 4 0.144962 0.900877 0.937417
438 2 0.341963 0.912519 0.897368
440 4 0.368945 0.888766 0.900221
662 4 0.141644 0.934583 0.911596
439 4 0.314981 0.936272 0.894515
695 4 0.335072 0.279643 0.996378
1002 2 0.128543 0.117266 0.943485
1003 4 0.140273 0.135597 0.97224
1004 4 0.116813 0.0989361 0.914731
292 4 0.434029 0.0770691 0.922385
1092 2 0.0219896 0.151341 0.953678
1093 4 0.0250339 0.115474 0.95152
1094 4 0.0189445 0.187209 0.955835
83 4 0.484033 0.763202 0.806852
1397 4 0.207734 0.0526743 0.993664
1395 2 0.185272 0.0506342 0.965526
283 4 0.364691 0.119887 0.941694
986 4 0.0267205 0.21938 0.979029
486 2 0.0229999 0.296857 0.878824
487 4 0.0524093 0.316781 0.872617
541 4 0.190291 0.298803 0.93463
1475 4 0.223874 0.31301 0.928473
1473 2 0.23691 0.303775 0.960802
1138 4 0.480305 0.0243398 0.946047
58 4 0.488668 0.14509 0.982692
642 2 0.141902 0.336266 0.990425
1178 4 0.153268 0.398853 0.988583
644 4 0.13728 0.369443 0.977071
1176 2 0.172719 0.406622 0.959229
32 3 0.380813 0.414188 0.980127
33 3 0.416541 0.380466 0.95722
809 4 0.377078 0.395849 0.90778
31 1 0.406046 0.41221 0.958678
93 2 0.0723803 0.494874 0.999729
1410 2 0.493013 0.250184 0.815994
1177 4 0.192169 0.414393 0.929874
34 3 0.395424 0.422127 0.928533
1466 4 0.413718 0.459241 0.942054
1464 2 0.431346 0.490094 0.935907
35 3 0.430481 0.431633 0.968898
987 2 0.203676 0.597416 0.968138
989 4 0.225736 0.596536 0.939623
1465 4 0.448975 0.520946 0.92976
886 4 0.239832 0.611106 0.909273
923 4 0.39134 0.634619 0.903981
921 2 0.395751 0.667486 0.918148
573 2 0.0867077 0.678416 0.966333
575 4 0.113108 0.658498 0.951954
217 4 0.142428 0.660295 0.97293
218 4 0.209842 0.678618 0.990851
254 4 0.255596 0.660444 0.88762
216 2 0.176135 0.669457 0.981891
126 2 0.490877 0.937378 0.592133
1156 4 0.0184456 0.435069 0.778284
797 4 0.25893 0.790717 0.998735
98 4 0.271677 0.767331 0.971853
96 2 0.289361 0.792275 0.952737
97 4 0.307045 0.817221 0.933621
1201 4 0.370189 0.848353 0.847938
1200 2 0.392681 0.838469 0.874337
127 4 0.458729 0.92275 0.584858
525 2 0.00236512 0.862472 0.985643
501 2 0.14578 0.874923 0.912395
503 4 0.1466 0.84897 0.887371
223 4 0.261841 0.895939 0.982151
222 2 0.28028 0.909726 0.954396
314 4 0.381966 0.904396 0.930515
312 2 0.401625 0.880768 0.949373
1365 2 0.468388 0.806467 0.94091
1366 4 0.449176 0.835168 0.951284
313 4 0.421285 0.857139 0.968231
527 4 0.0124053 0.895725 0.975956
451 4 0.0315257 0.927155 0.9646
450 2 0.047471 0.925977 0.932277
933 2 0.485501 0.41231 0.576789
481 4 0.115051 0.152116 0.993795
1412 4 0.46366 0.260313 0.834329
590 4 0.172647 0.260263 0.533942
94 4 0.0534233 0.524368 0.991297
1363 4 0.22708 0.931709 0.994816
293 4 0.435966 0.0979362 0.991396
1474 4 0.249947 0.294541 0.993132
988 4 0.181617 0.598294 0.996652
1364 4 0.157308 0.913461 0.994096
1362 2 0.192194 0.922585 0.994456
545 4 0.112365 0.717327 0.503517
449 4 0.419107 0.798977 0.514843
113 4 0.623191 0.0470528 0.0979131
1288 4 0.600068 0.07503 0.0880463
1287 2 0.608943 0.0866317 0.0550752
111 2 0.636285 0.0149385 0.0880327
1030 4 0.508398 0.210608 0.175076
724 4 0.630689 0.896627 0.493062
1387 4 0.564084 0.415398 0.0280338
1289 4 0.617818 0.0982337 0.0221046
918 2 0.736082 0.105521 0.0511179
1262 4 0.78717 0.0832308 0.0654448
919 4 0.75379 0.0931263 0.0799841
1260 2 0.796371 0.100916 0.0954944
1413 2 0.829252 0.108868 0.000310945
1415 4 0.82707 0.0780328 0.0188805
824 4 0.699616 0.218171 0.0319014
790 4 0.712509 0.369458 0.0125336
789 2 0.715673 0.388915 0.0427302
622 4 0.955561 0.282043 0.0232159
621 2 0.945821 0.302062 0.0515836
623 4 0.936081 0.322081 0.0799519
1439 4 0.760781 0.352296 0.073966
1330 4 0.750373 0.609188 0.014424
378 2 0.518833 0.512515 0.0246746
267 2 0.669984 0.58422 0.069627
268 4 0.701112 0.573849 0.0546628
72 2 0.696146 0.518434 0.0316652
74 4 0.709594 0.484981 0.0309885
73 4 0.682698 0.551887 0.0323422
1012 4 0.527908 0.262189 0.254379
460 4 0.90972 0.581928 0.0382423
459 2 0.910843 0.597313 0.00564725
1323 2 0.504557 0.718356 0.00654774
61 4 0.641647 0.759616 0.058657
298 4 0.736834 0.844555 0.442334
60 2 0.673103 0.776167 0.0647396
62 4 0.704559 0.792717 0.0708211
665 4 0.998508 0.147678 0.472652
419 4 0.703778 0.796785 0.0297293
1436 4 0.734336 0.788778 0.0490951
1435 4 0.766645 0.764673 0.108901
1434 2 0.750491 0.776725 0.0789979
508 4 0.985347 0.802468 0.0426624
507 2 0.957577 0.804945 0.019793
1402 4 0.992083 0.992185 0.2041
424 4 0.514895 0.965527 0.0587347
920 4 0.718375 0.117915 0.0222527
423 2 0.516032 0.956705 0.0237875
1291 4 0.66322 0.0726129 0.1639
1290 2 0.690519 0.0957002 0.159195
1292 4 0.717818 0.118788 0.154489
279 2 0.711257 0.998215 0.0880918
281 4 0.686687 0.971911 0.0858767
280 4 0.735825 0.0245191 0.0903057
29 3 0.829019 0.0452628 0.184825
615 2 0.868316 0.0844718 0.103655
617 4 0.862005 0.0490876 0.100737
28 3 0.844665 0.0474658 0.132339
26 1 0.828822 0.0291954 0.155471
335 4 0.936417 0.976335 0.140917
190 4 0.939216 0.00709752 0.122178
189 2 0.970681 0.0243807 0.118774
1386 2 0.587437 0.392622 0.0126605
367 4 0.930623 0.839966 0.398134
1136 4 0.879257 0.919049 0.484934
967 4 0.840099 0.123511 0.137319
616 4 0.874625 0.119857 0.106574
1261 4 0.805572 0.118602 0.125544
1031 4 0.530601 0.270336 0.141291
822 2 0.698311 0.198229 0.00188445
841 4 0.548949 0.827995 0.172588
1038 2 0.563463 0.294533 0.129
1040 4 0.588271 0.268836 0.124039
1039 4 0.538654 0.32023 0.13396
244 4 0.818151 0.242995 0.229591
1256 4 0.969853 0.320063 0.0941893
1099 4 0.506182 0.611577 0.109871
266 4 0.59956 0.430622 0.149618
791 4 0.718836 0.408371 0.0729273
1438 4 0.803857 0.373795 0.127668
1437 2 0.782319 0.363046 0.100817