ITEM: TIMESTEP
1446000
ITEM: NUMBER OF ATOMS
1520
ITEM: BOX BOUNDS pp pp pp
-6.9326749999999997e+00 6.9326749999999997e+00
-6.9326749999999997e+00 6.9326749999999997e+00
-6.9326749999999997e+00 6.9326749999999997e+00
ITEM: ATOMS id type xs ys zs
719 4 0.0977881 0.0888767 0.0770359
717 2 0.0918787 0.0654055 0.0503036
718 4 0.0859692 0.0419343 0.0235712
210 2 0.330391 0.172536 0.020849
212 4 0.336081 0.179389 0.0557932
778 4 0.355746 0.153602 0.0754169
777 2 0.36863 0.120245 0.0800738
655 4 0.427652 0.255915 0.0564318
779 4 0.381513 0.0868872 0.08473
654 2 0.424537 0.231215 0.0303433
1477 4 0.021176 0.259875 0.055833
1476 2 0.00148806 0.260342 0.0256237
1384 4 0.0158717 0.135255 0.468491
19 3 0.148481 0.242666 0.0460695
16 1 0.143246 0.274596 0.0375241
17 3 0.138306 0.276259 0.00475892
20 3 0.169441 0.292756 0.04545
18 3 0.116079 0.286303 0.0531685
350 4 0.422649 0.382308 0.119893
348 2 0.431367 0.35258 0.101435
622 4 0.0807349 0.561493 0.0418348
370 4 0.48989 0.466315 0.0288053
852 2 0.499114 0.524068 0.043939
1177 4 0.033316 0.562713 0.0522725
1176 2 0.0224126 0.588226 0.0292385
1178 4 0.0115099 0.613741 0.0062048
621 2 0.109666 0.548976 0.0243212
623 4 0.138597 0.53646 0.00680768
854 4 0.504083 0.54807 0.070389
1265 4 0.188189 0.657353 0.0275077
1243 4 0.371963 0.682141 0.00327195
579 2 0.0585087 0.738988 0.0358567
581 4 0.0558093 0.703873 0.0281088
580 4 0.0612089 0.774104 0.0436046
1304 4 0.148653 0.695227 0.0907335
1302 2 0.12435 0.67944 0.0692721
797 4 0.158801 0.698808 0.0547617
120 2 0.494104 0.80242 0.388843
13 3 0.129782 0.962088 0.481657
148 4 0.107378 0.842631 0.057881
147 2 0.0908927 0.848187 0.0262934
796 4 0.196678 0.759688 0.0469825
795 2 0.17774 0.729248 0.0508719
728 4 0.129835 0.952945 0.0870038
726 2 0.101958 0.932556 0.0766336
1237 4 0.0166715 0.866748 0.388046
339 2 0.196302 0.849626 0.0525884
340 4 0.198884 0.845619 0.0883335
128 4 0.34713 0.905053 0.0677731
792 2 0.467976 0.873594 0.0141942
494 4 0.00497288 0.0676718 0.326735
1236 2 0.0103559 0.834968 0.403875
793 4 0.486213 0.900284 0.0301791
536 4 0.465594 0.916299 0.0568559
442 4 0.14589 0.0677129 0.116799
443 4 0.168013 0.00489524 0.144479
441 2 0.156951 0.0363039 0.130639
1408 4 0.422963 0.0374948 0.184559
1407 2 0.392797 0.0572525 0.184284
303 2 0.47859 0.0897986 0.15453
304 4 0.473338 0.068233 0.126109
194 4 0.152033 0.104089 0.144389
192 2 0.150311 0.130718 0.120133
193 4 0.14859 0.157347 0.095878
1244 4 0.311383 0.644613 0.0143767
949 4 0.185517 0.167875 0.106665
948 2 0.218419 0.166503 0.0919694
950 4 0.251321 0.165131 0.0772733
508 4 0.258855 0.240782 0.123611
507 2 0.294029 0.243256 0.131166
509 4 0.329203 0.245731 0.138723
1318 4 0.398943 0.237118 0.0641266
1317 2 0.370922 0.244487 0.0855952
1319 4 0.3429 0.251857 0.107063
662 4 0.0596235 0.218763 0.129275
660 2 0.0275455 0.230051 0.117277
1102 4 0.238117 0.273189 0.197083
360 2 0.0218806 0.42462 0.0735425
1227 2 0.206332 0.338667 0.134414
1229 4 0.170354 0.337434 0.132306
1228 4 0.24231 0.3399 0.136521
349 4 0.440084 0.322852 0.0829772
917 4 0.498201 0.370642 0.132971
362 4 0.0373602 0.439417 0.102557
898 4 0.0330677 0.5698 0.0880415
11 1 0.143485 0.991329 0.472876
897 2 0.0188435 0.541423 0.105152
1303 4 0.100048 0.663655 0.0478102
82 4 0.402096 0.785355 0.164236
928 4 0.0985023 0.823172 0.0878466
927 2 0.093862 0.798656 0.113882
929 4 0.0892219 0.77414 0.139918
127 4 0.332783 0.847873 0.109322
1269 2 0.0261808 0.885922 0.0897942
727 4 0.0740817 0.912166 0.0662628
1270 4 0.0618456 0.883483 0.0850493
1030 4 0.165459 0.862044 0.101546
1029 2 0.166055 0.855693 0.137039
126 2 0.339957 0.876463 0.088547
434 4 0.310882 0.829751 0.135222
1242 2 0.341673 0.663378 0.00882449
1194 2 0.382108 0.944793 0.141467
1196 4 0.417243 0.939745 0.147829
1195 4 0.346973 0.949841 0.135105
534 2 0.453936 0.929256 0.0884257
535 4 0.442279 0.942213 0.119996
1072 4 0.0622019 0.0451073 0.251382
1436 4 0.0832008 0.0351212 0.218729
480 2 0.316703 0.0615079 0.205805
482 4 0.327231 0.0910753 0.188047
1409 4 0.362631 0.0770104 0.184009
844 4 0.0969474 0.179418 0.179203
843 2 0.0935125 0.212957 0.192
451 4 0.196524 0.23607 0.270906
1190 4 0.306489 0.216374 0.203565
1189 4 0.350339 0.207141 0.260078
1188 2 0.328414 0.211758 0.231821
845 4 0.0900771 0.246495 0.204799
1097 4 0.118718 0.242382 0.231702
1103 4 0.189046 0.259438 0.248117
1101 2 0.213582 0.266313 0.2226
1415 4 0.33312 0.354031 0.250461
1413 2 0.36901 0.354108 0.253968
1414 4 0.404899 0.354185 0.257478
341 4 0.193719 0.853633 0.0168428
773 4 0.0118427 0.48866 0.275074
1153 4 0.099715 0.454035 0.234808
1152 2 0.118479 0.483449 0.243925
503 4 0.379341 0.413157 0.138357
501 2 0.379258 0.449083 0.141477
682 4 0.433181 0.388961 0.215086
502 4 0.379174 0.485009 0.144596
1059 2 0.0353885 0.672184 0.237026
1060 4 0.000704562 0.67297 0.246867
397 4 0.47358 0.583201 0.208209
398 4 0.424935 0.636414 0.210129
396 2 0.449257 0.609807 0.209169
589 4 0.00918845 0.74637 0.281311
1061 4 0.070072 0.671399 0.227185
426 2 0.326695 0.708691 0.248631
427 4 0.352701 0.729424 0.234694
81 2 0.407113 0.75382 0.147479
83 4 0.412131 0.722285 0.130722
1358 4 0.218875 0.878959 0.247843
1224 2 0.442508 0.816637 0.234706
864 2 0.0108894 0.897277 0.201611
865 4 0.000266205 0.928823 0.215482
1031 4 0.166651 0.849341 0.172531
1357 4 0.174139 0.87602 0.191348
1356 2 0.196507 0.877489 0.219595
1321 4 0.221974 0.843478 0.251668
433 4 0.370366 0.808968 0.170315
432 2 0.340623 0.81936 0.152768
1225 4 0.454592 0.843551 0.21397
1434 2 0.078845 0.00746105 0.241452
1435 4 0.0744892 0.979801 0.264176
861 2 0.239878 0.965919 0.21026
863 4 0.205361 0.972715 0.202332
132 2 0.312367 0.978012 0.173032
134 4 0.279926 0.975389 0.188558
862 4 0.274394 0.959123 0.218187
133 4 0.344809 0.980635 0.157506
1445 4 0.20977 0.0474634 0.259962
1443 2 0.244387 0.0396976 0.253498
481 4 0.306176 0.0319406 0.223564
1444 4 0.279005 0.0319323 0.247033
314 4 0.400467 0.0964787 0.286187
312 2 0.413757 0.063833 0.293804
313 4 0.427047 0.0311867 0.301421
346 4 0.43968 0.048295 0.332916
1071 2 0.0511623 0.0763657 0.265577
1073 4 0.0401229 0.107623 0.279771
452 4 0.239553 0.181909 0.291319
450 2 0.218038 0.20899 0.281113
1095 2 0.115971 0.278311 0.233103
1096 4 0.113224 0.31424 0.234504
176 4 0.253852 0.302807 0.312696
1010 4 0.126982 0.402264 0.326338
1008 2 0.111302 0.402476 0.293865
1009 4 0.0956225 0.402688 0.261392
683 4 0.47002 0.380656 0.276532
681 2 0.451601 0.384809 0.245809
1154 4 0.137243 0.512864 0.253042
200 4 0.279334 0.464404 0.264961
198 2 0.258459 0.462369 0.294295
1026 2 0.336899 0.464558 0.29318
1027 4 0.315246 0.454748 0.266063
1028 4 0.35855 0.474369 0.320297
1261 4 0.409907 0.441351 0.333266
1260 2 0.430859 0.46578 0.316997
1262 4 0.45181 0.490207 0.300727
886 4 0.276657 0.870928 0.461615
282 2 0.172743 0.84238 0.473768
284 4 0.170885 0.872603 0.493351
1442 4 0.0989202 0.451509 0.370009
553 4 0.171896 0.504107 0.256229
552 2 0.178346 0.536045 0.271681
554 4 0.184797 0.567983 0.287133
88 4 0.377772 0.575149 0.315545
87 2 0.397808 0.557006 0.339416
89 4 0.417843 0.538863 0.363288
229 4 0.216121 0.581262 0.311851
228 2 0.233803 0.606396 0.330719
230 4 0.251486 0.631531 0.349586
428 4 0.30069 0.687957 0.262568
745 4 0.0833656 0.734587 0.325159
1320 2 0.25237 0.83654 0.26979
1322 4 0.282765 0.829601 0.287912
1226 4 0.430423 0.789723 0.255442
542 4 0.434396 0.772008 0.28624
540 2 0.460784 0.775337 0.310593
1204 4 0.134666 0.856467 0.348459
1203 2 0.151959 0.87262 0.321249
1205 4 0.169253 0.888774 0.294039
985 4 0.147888 0.916006 0.297975
984 2 0.12228 0.933054 0.279161
986 4 0.0966706 0.950103 0.260348
763 4 0.246311 0.977606 0.331547
762 2 0.272343 0.953333 0.337346
91 4 0.17052 0.980947 0.40728
90 2 0.202358 0.996857 0.401475
961 4 0.298229 0.115578 0.418989
345 2 0.459563 0.0359046 0.360331
347 4 0.479447 0.0235147 0.387744
960 2 0.265478 0.11224 0.404268
769 4 0.484034 0.153327 0.391311
168 2 0.214463 0.259359 0.424634
768 2 0.470611 0.183705 0.405361
770 4 0.457188 0.214084 0.41941
860 4 0.468044 0.239711 0.391798
175 4 0.21072 0.302616 0.370499
174 2 0.232286 0.302711 0.341598
170 4 0.215485 0.289357 0.404648
858 2 0.444206 0.247513 0.365888
859 4 0.420368 0.255313 0.339978
44 3 0.345248 0.327743 0.409752
1481 4 0.438114 0.409242 0.372855
1479 2 0.457142 0.399591 0.343783
1441 4 0.0383713 0.490408 0.365286
199 4 0.237586 0.460333 0.32363
678 2 0.282286 0.478571 0.375019
679 4 0.263041 0.479398 0.344534
680 4 0.301542 0.477749 0.405512
115 4 0.38482 0.463699 0.34268
114 2 0.363492 0.468839 0.371299
116 4 0.342158 0.473985 0.399931
1440 2 0.0686456 0.470959 0.367648
620 4 0.140653 0.633213 0.422994
826 4 0.359452 0.563666 0.393311
825 2 0.34327 0.534528 0.407077
1021 4 0.451989 0.524685 0.370618
1020 2 0.458625 0.497934 0.393873
1022 4 0.465259 0.471184 0.417127
618 2 0.137406 0.601403 0.40632
619 4 0.13416 0.569594 0.389647
1050 2 0.293437 0.66969 0.376743
1052 4 0.272514 0.660367 0.348892
1051 4 0.31436 0.679015 0.404594
751 4 0.277403 0.752005 0.410671
377 4 0.276068 0.800701 0.356418
746 4 0.11064 0.772379 0.3802
715 4 0.160499 0.827001 0.421339
744 2 0.0970033 0.753483 0.352679
716 4 0.102984 0.807623 0.382375
714 2 0.131741 0.817312 0.401857
750 2 0.26398 0.764917 0.379792
375 2 0.300285 0.8265 0.349463
752 4 0.250556 0.77783 0.348914
376 4 0.324502 0.852298 0.342509
541 4 0.48717 0.778666 0.334945
95 4 0.00977035 0.982321 0.422057
143 4 0.0203664 0.000542444 0.450408
1369 4 0.0308263 0.883148 0.356126
1368 2 0.0653901 0.873553 0.352429
1370 4 0.0999536 0.863956 0.348733
283 4 0.174601 0.812157 0.454184
887 4 0.28321 0.805292 0.43245
885 2 0.279933 0.83811 0.447033
896 4 0.350405 0.874822 0.357893
895 4 0.387276 0.915902 0.404309
894 2 0.36884 0.895362 0.381101
1246 4 0.476467 0.855827 0.386725
1245 2 0.456216 0.875908 0.408795
1247 4 0.435964 0.895989 0.430864
764 4 0.298375 0.929061 0.343147
142 4 0.0559933 0.0601465 0.430923
141 2 0.0381797 0.0303444 0.440665
12 3 0.119583 0.0142657 0.471081
14 3 0.158091 0.988556 0.442894
15 3 0.165631 0.000517774 0.495324
92 4 0.234195 0.012766 0.39567
847 4 0.262302 0.0166381 0.416346
846 2 0.257571 0.0266724 0.450658
848 4 0.25284 0.0367065 0.484971
1025 4 0.0880527 0.809026 0.4718
1248 2 0.0836579 0.0892141 0.49315
974 4 0.142758 0.109345 0.440338
1250 4 0.0971811 0.122575 0.491007
608 4 0.128158 0.128339 0.469075
973 4 0.211611 0.106997 0.418995
972 2 0.177185 0.10817 0.429667
962 4 0.232728 0.108901 0.389548
412 4 0.403374 0.140612 0.486619
1238 4 0.004041 0.803188 0.419703
371 4 0.422732 0.440105 0.0266815
1023 2 0.0541765 0.802158 0.46152
169 4 0.213442 0.22936 0.44462
613 4 0.238805 0.20822 0.434151
612 2 0.262526 0.206362 0.461248
614 4 0.286248 0.204504 0.488344
506 4 0.00702434 0.257711 0.430868
1142 4 0.0733061 0.317495 0.462134
1140 2 0.0467975 0.296975 0.475426
122 4 0.489626 0.831926 0.409085
466 4 0.290444 0.238855 0.491127
1263 2 0.21605 0.671921 0.00984558
1505 4 0.444601 0.332414 0.499751
78 2 0.484175 0.326347 0.46218
241 4 0.0106347 0.386611 0.458799
674 4 0.109063 0.414065 0.462025
45 3 0.345438 0.364426 0.449792
42 3 0.384981 0.36445 0.413272
43 3 0.335238 0.38054 0.398948
41 1 0.352569 0.359301 0.418142
668 4 0.344294 0.398129 0.428244
79 4 0.466436 0.304027 0.484262
240 2 0.0445001 0.394962 0.449646
242 4 0.0783662 0.403313 0.440492
533 4 0.0100065 0.504345 0.385875
161 4 0.307874 0.469047 0.472923
1258 4 0.295219 0.493376 0.442949
159 2 0.287568 0.44791 0.493944
667 4 0.325701 0.467351 0.436447
666 2 0.335 0.43273 0.432345
830 4 0.361032 0.487351 0.433905
828 2 0.395336 0.478636 0.440878
829 4 0.429627 0.469921 0.447849
943 4 0.0308679 0.540845 0.473984
532 4 0.00204082 0.533832 0.451211
531 2 0.00602336 0.519089 0.418543
1259 4 0.231212 0.523682 0.456677
1343 4 0.202375 0.521671 0.483697
1341 2 0.21866 0.5527 0.492208
827 4 0.327083 0.50537 0.420849
1257 2 0.263209 0.508533 0.449811
272 4 0.332027 0.499314 0.460675
270 2 0.333943 0.525261 0.485665
1450 4 0.435621 0.483042 0.483458
1480 4 0.47617 0.38994 0.31471
634 4 0.0230474 0.870701 0.321914
1210 4 0.257462 0.587927 0.450571
1209 2 0.24301 0.620595 0.455494
1411 4 0.26394 0.673296 0.462177
404 4 0.419944 0.70739 0.448398
1402 4 0.0256741 0.687164 0.475136
958 4 0.0558707 0.700459 0.488889
957 2 0.0909963 0.700556 0.497049
938 4 0.0127231 0.210731 0.242099
901 4 0.0273386 0.309131 0.208288
983 4 0.208106 0.680228 0.443968
981 2 0.187178 0.688527 0.472139
1211 4 0.228558 0.653266 0.460417
1410 2 0.283783 0.684739 0.490029
626 4 0.458562 0.636738 0.134248
402 2 0.439004 0.685402 0.469696
403 4 0.458064 0.663414 0.490995
139 4 0.00717154 0.764385 0.462237
1024 4 0.0203 0.79529 0.45124
625 4 0.496387 0.69807 0.137313
866 4 0.0215125 0.865731 0.18774
1249 4 0.0701354 0.0558536 0.495292
606 2 0.150523 0.148665 0.488749
1141 4 0.0202891 0.276455 0.488716
672 2 0.126653 0.402734 0.491395
926 4 0.251918 0.0575008 0.000669136
369 2 0.456311 0.45321 0.0277435
305 4 0.483843 0.111365 0.182951
624 2 0.477474 0.667404 0.13578
1193 4 0.481216 0.359885 0.333784
1305 2 0.0111737 0.389305 0.00333212
1449 2 0.460874 0.508399 0.487901
677 4 0.121821 0.958512 0.00580432
924 2 0.245073 0.0914371 0.0107648
925 4 0.238228 0.125372 0.0208593
766 4 0.152133 0.247094 0.0121743
1169 4 0.0144201 0.964146 0.121673
899 4 0.0046186 0.513046 0.122264
361 4 0.00640094 0.409824 0.0445285
1451 4 0.486126 0.533756 0.492344
656 4 0.421422 0.206515 0.00425531
1099 4 0.08916 0.968195 0.578407
1518 2 0.130292 0.0374701 0.53747
1493 4 0.0207444 0.653094 0.87292
1519 4 0.127227 0.0579284 0.567008
559 4 0.358748 0.0485423 0.611848
558 2 0.388363 0.0366847 0.628666
959 4 0.126123 0.700652 0.505211
922 4 0.0484588 0.779368 0.943849
317 4 0.246737 0.100694 0.51054
315 2 0.223397 0.126644 0.519607
316 4 0.200057 0.152595 0.528675
123 2 0.310789 0.0841867 0.590076
125 4 0.3022 0.110078 0.566491
413 4 0.417024 0.0963103 0.541871
411 2 0.410199 0.118461 0.514245
1448 4 0.00728028 0.295686 0.513508
607 4 0.172889 0.168991 0.508422
834 2 0.0353615 0.311389 0.554845
835 4 0.0521113 0.341809 0.564566
1089 2 0.497186 0.512161 0.816745
598 4 0.121965 0.330706 0.517804
467 4 0.268057 0.300159 0.521824
1504 4 0.412036 0.294761 0.551938
1503 2 0.428319 0.313588 0.525844
599 4 0.0861196 0.363328 0.571213
673 4 0.144243 0.391402 0.520765
597 2 0.104042 0.347017 0.544509
1136 4 0.483605 0.643067 0.63507
190 4 0.152943 0.360517 0.534431
189 2 0.184277 0.355843 0.551656
592 4 0.295961 0.400376 0.570573
160 4 0.267266 0.426779 0.514962
1342 4 0.234944 0.583729 0.50072
512 4 0.252701 0.591324 0.540135
271 4 0.335856 0.5512 0.510643
338 4 0.139258 0.912652 0.934955
664 4 0.462738 0.505057 0.555176
836 4 0.0186115 0.28097 0.545122
1475 4 0.145075 0.667401 0.518785
1473 2 0.165005 0.670466 0.548682
1474 4 0.184935 0.673534 0.578579
1424 4 0.244621 0.616185 0.562381
510 2 0.28356 0.585419 0.522436
1422 2 0.26174 0.644406 0.576905
1181 4 0.326549 0.722557 0.516926
1179 2 0.312637 0.751016 0.534158
1180 4 0.298726 0.779475 0.551392
1094 4 0.264155 0.774075 0.57337
225 2 0.296061 0.900736 0.539105
226 4 0.326795 0.881892 0.53827
1098 2 0.0741908 0.936901 0.588256
1100 4 0.0592212 0.905607 0.598105
970 4 0.16258 0.902141 0.586035
227 4 0.265327 0.919581 0.53994
1360 4 0.333047 0.0253729 0.633085
124 4 0.319379 0.0582932 0.613662
1359 2 0.315198 0.994727 0.639624
706 4 0.44727 0.0229874 0.625825
560 4 0.417976 0.0248266 0.645485
705 2 0.480352 0.0199247 0.611806
1367 4 0.138437 0.865167 0.503698
1412 4 0.303625 0.696182 0.517881
704 4 0.112012 0.0648587 0.599837
702 2 0.137232 0.0880753 0.611034
703 4 0.162453 0.111291 0.622231
817 4 0.186507 0.163949 0.65962
1109 4 0.489624 0.159127 0.616968
1365 2 0.131168 0.900408 0.506067
1107 2 0.477264 0.186894 0.636372
631 4 0.458897 0.250515 0.670836
1108 4 0.464903 0.214663 0.655777
1489 4 0.310729 0.306332 0.674168
27 3 0.375834 0.253749 0.622748
28 3 0.351196 0.288976 0.655769
632 4 0.475472 0.316358 0.646512
630 2 0.467184 0.283437 0.658675
593 4 0.251333 0.345936 0.586274
1490 4 0.273511 0.320578 0.614056
191 4 0.215611 0.35117 0.568882
1488 2 0.29212 0.313455 0.644113
591 2 0.273647 0.373156 0.578424
373 4 0.319665 0.426991 0.580023
1219 4 0.491352 0.327878 0.676471
374 4 0.324203 0.457509 0.645213
372 2 0.321934 0.442249 0.612618
963 2 0.0325035 0.545571 0.599797
964 4 0.00612155 0.567622 0.610667
965 4 0.0588854 0.523521 0.588927
742 4 0.410598 0.542667 0.623555
665 4 0.437948 0.520466 0.621128
663 2 0.450343 0.512761 0.588153
741 2 0.405103 0.533954 0.658113
1111 4 0.0650835 0.593588 0.628942
1110 2 0.0414795 0.619909 0.636047
257 4 0.997016 0.574961 0.57441
1163 4 0.0737271 0.617518 0.603027
1162 4 0.133807 0.640427 0.57036
1161 2 0.103767 0.628972 0.586693
298 4 0.182189 0.584743 0.636508
297 2 0.206058 0.586492 0.609534
299 4 0.229928 0.588243 0.582559
103 4 0.301243 0.645485 0.602413
102 2 0.326259 0.650712 0.627855
1423 4 0.278858 0.672628 0.59143
104 4 0.351275 0.655938 0.653297
819 2 0.332227 0.727184 0.667751
1092 2 0.281866 0.76541 0.603564
1093 4 0.299578 0.756745 0.633756
821 4 0.302588 0.747616 0.66565
969 2 0.157591 0.893367 0.620655
971 4 0.152601 0.884593 0.655275
1485 2 0.395438 0.88281 0.668425
1486 4 0.42824 0.897779 0.669148
1284 2 0.225585 0.961686 0.636914
1285 4 0.189954 0.963325 0.631603
1286 4 0.261215 0.960048 0.642225
1361 4 0.297348 0.964084 0.646163
1333 4 0.172225 0.0163203 0.722928
1332 2 0.186791 0.0489618 0.718156
1328 4 0.231747 0.0713557 0.740739
977 4 0.233648 0.974218 0.747705
1334 4 0.201358 0.0816031 0.713383
1327 4 0.253565 0.134113 0.712685
818 4 0.243022 0.166654 0.704345
816 2 0.214764 0.165302 0.681982
1326 2 0.242656 0.102735 0.726712
722 4 0.14359 0.255888 0.728137
26 1 0.374679 0.26521 0.653859
29 3 0.367053 0.239934 0.674423
30 3 0.40397 0.277728 0.661873
487 4 0.0627654 0.331224 0.755439
1069 4 0.309545 0.386953 0.736422
239 4 0.338912 0.367574 0.739906
1068 2 0.292932 0.417046 0.725519
237 2 0.366726 0.389764 0.734042
238 4 0.39454 0.411954 0.728179
575 4 0.170484 0.407121 0.739704
573 2 0.167585 0.432528 0.714278
574 4 0.164686 0.457935 0.688851
380 4 0.277858 0.483913 0.720471
394 4 0.405904 0.426769 0.697576
395 4 0.405897 0.494439 0.672627
393 2 0.4059 0.460604 0.685101
1165 4 0.105351 0.618091 0.69736
1164 2 0.126397 0.603307 0.672083
743 4 0.399608 0.525241 0.692672
259 4 0.0113552 0.677542 0.658275
1112 4 0.0178762 0.646229 0.643151
1166 4 0.147443 0.588523 0.646806
524 4 0.211766 0.683106 0.661659
522 2 0.206575 0.678764 0.69708
523 4 0.201385 0.674422 0.7325
995 4 0.372876 0.642297 0.754154
1085 4 0.477077 0.625023 0.669383
993 2 0.385198 0.675638 0.748074
820 4 0.361866 0.706751 0.669853
994 4 0.397519 0.708979 0.741994
684 2 0.286031 0.836859 0.673117
685 4 0.298363 0.838966 0.706939
686 4 0.2737 0.834751 0.639295
699 2 0.358836 0.868187 0.737964
701 4 0.366384 0.871266 0.702836
1487 4 0.362638 0.867842 0.667703
497 4 0.0469681 0.969637 0.659914
641 4 0.14001 0.953769 0.71161
496 4 0.103519 0.9574 0.702971
495 2 0.0752438 0.963518 0.681442
640 4 0.205505 0.982739 0.72014
639 2 0.172757 0.968254 0.715875
841 4 0.257788 0.932575 0.710798
840 2 0.246621 0.908637 0.735348
1268 4 0.340206 0.0290507 0.74905
1266 2 0.363386 0.00421677 0.761148
1081 4 0.421889 0.96585 0.734732
1082 4 0.48261 0.990145 0.765135
1080 2 0.452249 0.977997 0.749934
1468 4 0.0541726 0.0341763 0.849236
1 1 0.0132721 0.0271165 0.846075
511 4 0.314419 0.579513 0.504736
4 3 0.0293314 0.0514697 0.829675
975 2 0.25423 0.00262411 0.739345
642 2 0.427066 0.0180847 0.812884
220 4 0.487893 0.0429452 0.812093
70 4 0.00593682 0.12207 0.741846
1401 2 0.012563 0.671099 0.504639
675 2 0.131691 0.963928 0.971546
878 4 0.210446 0.0660271 0.810911
430 4 0.148353 0.270193 0.806685
383 4 0.266697 0.240705 0.826025
1511 4 0.323259 0.269545 0.806079
1495 4 0.293915 0.213252 0.828539
431 4 0.0820275 0.283631 0.781742
429 2 0.11519 0.276912 0.794213
720 2 0.176974 0.260473 0.740976
721 4 0.21036 0.265058 0.753815
382 4 0.209149 0.246692 0.782967
381 2 0.237923 0.243699 0.804495
1509 2 0.356747 0.25902 0.814335
1510 4 0.390235 0.248495 0.822593
1420 4 0.391985 0.215988 0.83744
486 2 0.0786145 0.344571 0.784953
568 4 0.189736 0.384171 0.759818
488 4 0.0944639 0.357918 0.814467
567 2 0.169154 0.374773 0.787898
569 4 0.148571 0.365375 0.815977
319 4 0.362365 0.414363 0.825013
73 4 0.365554 0.375825 0.833012
328 4 0.0314903 0.423052 0.802763
327 2 0.0581619 0.435748 0.823449
1513 4 0.0146247 0.450768 0.778467
1070 4 0.27632 0.447139 0.714617
378 2 0.273471 0.509759 0.745234
318 2 0.363826 0.447495 0.810848
320 4 0.365287 0.480625 0.796683
49 3 0.227819 0.541424 0.826973
809 4 0.20181 0.517246 0.829313
379 4 0.269083 0.535604 0.769997
50 3 0.246589 0.562592 0.780623
46 1 0.255084 0.551309 0.810277
47 3 0.269915 0.575572 0.827364
48 3 0.276422 0.525728 0.807077
729 2 0.160181 0.662725 0.766018
730 4 0.196192 0.664566 0.766461
731 4 0.124169 0.660884 0.765575
617 4 0.406517 0.743372 0.749098
615 2 0.420219 0.746093 0.782343
293 4 0.311942 0.856704 0.789404
188 4 0.330452 0.835381 0.811217
616 4 0.433923 0.748813 0.815589
1335 2 0.477205 0.786686 0.836616
982 4 0.166249 0.696825 0.500309
850 4 0.036211 0.906402 0.762073
849 2 0.0365048 0.925586 0.792606
292 4 0.240077 0.862597 0.790955
842 4 0.235454 0.884699 0.759898
697 4 0.181729 0.915413 0.842555
291 2 0.276009 0.85965 0.79018
700 4 0.351289 0.865106 0.773092
186 2 0.352758 0.86323 0.816441
698 4 0.139558 0.904828 0.785012
696 2 0.160644 0.91012 0.813783
976 4 0.274812 0.03103 0.730984
644 4 0.401663 0.993958 0.804342
1267 4 0.386567 0.979382 0.773246
920 4 0.457976 0.890561 0.878619
38 3 0.234219 0.824398 0.957186
3 3 0.0330621 0.0143947 0.869875
1467 2 0.085793 0.0443116 0.835171
1437 2 0.306195 0.0867232 0.87431
1439 4 0.305852 0.0800331 0.838875
1438 4 0.306539 0.0934128 0.909743
643 4 0.45247 0.042212 0.821427
166 4 0.431219 0.0599161 0.854052
165 2 0.40762 0.0729048 0.878027
1469 4 0.117413 0.0544471 0.821106
876 2 0.245596 0.0736625 0.808347
1395 2 0.201775 0.128992 0.921107
1396 4 0.168009 0.12203 0.931679
877 4 0.280747 0.0812986 0.805782
1053 2 0.468517 0.131713 0.882516
1054 4 0.460235 0.146148 0.850524
1055 4 0.476799 0.117279 0.914507
1502 4 0.0260644 0.219209 0.854313
1500 2 0.0445884 0.250007 0.851334
776 4 0.232788 0.239182 0.847743
775 4 0.206046 0.235371 0.914617
774 2 0.219417 0.237277 0.88118
1494 2 0.296683 0.191325 0.857034
1496 4 0.299452 0.169399 0.885529
695 4 0.316273 0.149708 0.907473
1419 2 0.424628 0.208841 0.850995
1421 4 0.457271 0.201693 0.86455
58 4 0.485393 0.212817 0.844302
1501 4 0.0631114 0.280803 0.848356
248 4 0.0707802 0.29443 0.888993
247 4 0.140461 0.290505 0.870801
246 2 0.105621 0.292468 0.879897
72 2 0.395353 0.363702 0.849306
74 4 0.425152 0.351579 0.8656
1171 4 0.431612 0.378095 0.895694
329 4 0.0848327 0.448445 0.844133
459 2 0.439649 0.496635 0.861994
460 4 0.466015 0.500892 0.886225
461 4 0.413285 0.492379 0.837761
807 2 0.186489 0.522014 0.861608
808 4 0.171167 0.526782 0.893902
1372 4 0.316249 0.573127 0.874279
1371 2 0.307364 0.571667 0.909196
1091 4 0.487148 0.509982 0.851312
1492 4 0.00289209 0.722702 0.879054
1491 2 0.0118182 0.687898 0.875987
1034 4 0.220571 0.866701 0.885005
1336 4 0.448738 0.765631 0.843447
851 4 0.0367987 0.944771 0.82314
1033 4 0.228161 0.826465 0.825631
1032 2 0.224366 0.846583 0.855318
187 4 0.375064 0.89108 0.821664
56 4 0.179509 0.981402 0.918719
54 2 0.178275 0.951423 0.898715
55 4 0.177041 0.921443 0.878712
919 4 0.396708 0.908975 0.845322
918 2 0.427343 0.899768 0.861971
857 4 0.483859 0.898217 0.855304
891 2 0.0274349 0.0393864 0.988892
465 2 0.27925 0.269507 0.506475
676 4 0.141562 0.969345 0.937287
1345 4 0.277033 0.0619379 0.976653
1346 4 0.246028 0.0253162 0.922808
1344 2 0.261531 0.0436269 0.949731
167 4 0.38402 0.085893 0.902003
195 2 0.0145415 0.121675 0.964402
196 4 0.0293241 0.136316 0.934949
893 4 0.0620245 0.0295279 0.991503
1397 4 0.235542 0.135953 0.910534
258 2 0.00236003 0.674992 0.693103
2 3 0.00548807 0.00305294 0.824603
694 4 0.321771 0.195281 0.963101
577 4 0.401528 0.112735 0.92557
576 2 0.396314 0.147604 0.917995
578 4 0.391098 0.182473 0.910419
765 2 0.162744 0.224803 0.985889
530 4 0.0582933 0.279016 0.664265
767 4 0.173356 0.202513 0.959604
693 2 0.319022 0.172495 0.935286
211 4 0.324702 0.165683 0.985904
171 2 0.0550734 0.330907 0.94787
173 4 0.0583067 0.325952 0.912297
528 2 0.0232266 0.28735 0.663136
416 4 0.296884 0.29638 0.948318
414 2 0.261238 0.293772 0.953112
415 4 0.225592 0.291164 0.957907
336 2 0.121056 0.888563 0.954674
1306 4 0.0272582 0.358563 0.993504
172 4 0.0518401 0.335861 0.983443
1170 2 0.421122 0.38826 0.928665
1457 4 0.107742 0.492687 0.975525
1455 2 0.132072 0.469702 0.962105
1456 4 0.156402 0.446716 0.948685
86 4 0.388941 0.492005 0.924952
84 2 0.360022 0.509984 0.913086
1172 4 0.410632 0.398425 0.961635
40 3 0.209718 0.86138 0.925868
158 4 0.44525 0.834136 0.964265
463 4 0.016642 0.190358 0.827574
1373 4 0.298479 0.570206 0.944116
1277 4 0.282587 0.547963 0.96689
1276 4 0.339868 0.513749 0.994273
1275 2 0.311227 0.530856 0.980582
85 4 0.331102 0.527964 0.901219
36 1 0.208021 0.845017 0.954297
1264 4 0.243911 0.686488 0.992184
37 3 0.208596 0.866674 0.979424
1366 4 0.123898 0.93565 0.508436
942 2 0.00923523 0.537587 0.502651
99 2 0.499197 0.637589 0.917784
913 4 0.265345 0.677905 0.96573
1255 4 0.294142 0.762116 0.976386
912 2 0.264098 0.713893 0.963809
914 4 0.262853 0.749884 0.961889
100 4 0.48348 0.66396 0.936704
1216 4 0.447222 0.672117 0.933991
1215 2 0.427588 0.672747 0.964233
921 2 0.0330358 0.76681 0.913768
923 4 0.0176131 0.75425 0.883689
149 4 0.0744072 0.853743 0.994706
39 3 0.179517 0.827541 0.955729
1254 2 0.2807 0.794262 0.967095
1256 4 0.267258 0.826409 0.957804
758 4 0.492694 0.772 0.973017
157 4 0.464466 0.766799 0.946998
156 2 0.454858 0.800467 0.955631
337 4 0.102855 0.864474 0.974393
1217 4 0.407953 0.673377 0.994473
794 4 0.44974 0.846905 0.998209
1520 4 0.133357 0.017012 0.507932
791 4 0.736298 0.058095 0.0349402
1144 4 0.732481 0.0526631 8.68582e-05
388 4 0.74415 0.0251807 0.0500626
387 2 0.773884 0.013169 0.03357
1004 4 0.897403 0.16839 0.0833141
748 4 0.829338 0.085712 0.0241166
747 2 0.864503 0.0780488 0.0263733
223 4 0.988214 0.0727221 0.0118854
1241 4 0.534946 0.109089 0.992862
789 2 0.746184 0.0927664 0.0357157
790 4 0.756068 0.127438 0.0364916
1297 4 0.556079 0.199166 0.0852943
1039 4 0.705004 0.189396 0.126695
454 4 0.872708 0.188997 0.0850153
453 2 0.897486 0.206779 0.0657725
713 4 0.600875 0.340644 0.0652766
711 2 0.577187 0.35544 0.0424645
1274 4 0.701922 0.236619 0.0546075
1272 2 0.686464 0.265168 0.0389109
1273 4 0.671006 0.293718 0.0232131
368 4 0.831583 0.324719 0.0581965
366 2 0.836819 0.310934 0.0252875
1239 2 0.564965 0.126424 0.00280208
1385 4 0.972436 0.169885 0.422495
712 4 0.5535 0.370236 0.0196522
1127 4 0.856873 0.422711 0.0432529
7 3 0.826255 0.398884 0.0480295
8 3 0.803286 0.349796 0.0491359
1307 4 0.995089 0.420047 0.0131601
222 2 0.95549 0.0582521 0.0163795
80 4 0.501913 0.348667 0.440099
1125 2 0.887718 0.41483 0.0601915
209 4 0.940694 0.426331 0.05589
151 4 0.998978 0.518602 0.0274296
207 2 0.94913 0.460934 0.0615367
273 2 0.665169 0.528539 0.0185915
274 4 0.696245 0.517497 0.00400567
1331 4 0.527091 0.882443 0.068642
505 4 0.980938 0.192835 0.448544
400 4 0.855419 0.55638 0.060707
399 2 0.886515 0.56814 0.0467393
401 4 0.917611 0.579901 0.0327711
275 4 0.634091 0.539581 0.0331775
772 4 0.961513 0.539674 0.26694
423 2 0.574187 0.705125 0.0147408
424 4 0.58083 0.686763 0.0450581
331 4 0.723785 0.699931 0.0761939
330 2 0.732559 0.689959 0.109719
1063 4 0.857817 0.670474 0.0576724
1062 2 0.84517 0.700348 0.0419229
62 4 0.569268 0.783509 0.0202259
1427 4 0.971368 0.817353 0.0202484
504 2 0.993981 0.225273 0.439706
1064 4 0.832524 0.730222 0.0261738
582 2 0.86899 0.817156 0.0307998
583 4 0.839555 0.812767 0.0104322
584 4 0.898423 0.821545 0.0511667
1426 4 0.935864 0.81197 0.0827953
1425 2 0.953616 0.814662 0.0515222
1387 4 0.780168 0.896061 0.0499519
1388 4 0.816857 0.845703 0.013622
1386 2 0.798513 0.870882 0.0317867
1271 4 0.990516 0.88836 0.0945389
781 4 0.62066 0.0452914 0.0253339
780 2 0.615348 0.0137931 0.0420699
782 4 0.610037 0.982295 0.0588054
1347 2 0.736607 0.905115 0.0654197
1349 4 0.752446 0.916658 0.0351492
771 2 0.986678 0.514167 0.271007
749 4 0.899668 0.0703847 0.0286287
300 2 0.697415 0.013501 0.15404
301 4 0.72065 0.0106782 0.126606
1400 4 0.786044 0.00747711 0.109982
1167 2 0.980988 0.950846 0.119248
1168 4 0.947558 0.937547 0.116823
1298 4 0.533063 0.136262 0.0585546
1038 2 0.723736 0.158735 0.129766
65 4 0.849542 0.129814 0.114373
1040 4 0.742468 0.128075 0.132837
64 4 0.777975 0.128514 0.123223
63 2 0.813759 0.129164 0.118798
1002 2 0.885008 0.135648 0.0919592
1003 4 0.872613 0.102907 0.100604
365 4 0.884297 0.119451 0.191561
1296 2 0.544571 0.167714 0.0719245
979 4 0.578784 0.251207 0.146441
978 2 0.561903 0.22289 0.161058
566 4 0.946696 0.220546 0.151922
564 2 0.944975 0.247457 0.175864
364 4 0.863186 0.180651 0.159772
363 2 0.873742 0.150051 0.175667
455 4 0.922263 0.224562 0.0465307
565 4 0.943253 0.274369 0.199807
1044 2 0.841604 0.250419 0.144458
648 2 0.803775 0.316662 0.167024
1045 4 0.827924 0.259594 0.176538
650 4 0.82812 0.297034 0.184982
916 4 0.554461 0.325941 0.139163
915 2 0.526331 0.348291 0.136067
6 1 0.806002 0.379014 0.0652255
10 3 0.776489 0.393208 0.0677407
9 3 0.818952 0.374118 0.0956927
1315 4 0.670713 0.46233 0.114238
1314 2 0.643084 0.484086 0.106255
1316 4 0.615455 0.505842 0.0982719
389 4 0.803618 0.00115885 0.0170782
208 4 0.957565 0.495537 0.0671843
332 4 0.741334 0.679985 0.143244
657 2 0.73698 0.777983 0.483715
646 4 0.776787 0.767948 0.172708
33 3 0.824495 0.723725 0.13766
34 3 0.798889 0.675422 0.141605
31 1 0.817937 0.697738 0.1577
35 3 0.802574 0.708097 0.18482
806 4 0.909903 0.72861 0.116796
804 2 0.906406 0.755573 0.0931063
184 4 0.590622 0.783019 0.0841823
185 4 0.592221 0.713322 0.065704
183 2 0.591421 0.748171 0.0749431
645 2 0.780838 0.769429 0.136905
647 4 0.78489 0.770911 0.101103
457 4 0.763947 0.800976 0.0865332
805 4 0.902908 0.782537 0.0694162
1329 2 0.540736 0.876014 0.101397
1330 4 0.554381 0.869587 0.134153