ITEM: TIMESTEP
255000
ITEM: NUMBER OF ATOMS
1520
ITEM: BOX BOUNDS pp pp pp
-6.9326749999999997e+00 6.9326749999999997e+00
-6.9326749999999997e+00 6.9326749999999997e+00
-6.9326749999999997e+00 6.9326749999999997e+00
ITEM: ATOMS id type xs ys zs
879 2 0.0774041 0.0396207 0.0755232
880 4 0.0933403 0.0595264 0.101023
308 4 0.154448 0.984768 0.000206188
1116 2 0.278287 0.0781396 0.0554624
1118 4 0.278153 0.0423541 0.0510144
277 4 0.245451 0.0259436 0.0568817
564 2 0.273129 0.167899 0.063371
565 4 0.298231 0.143046 0.056119
1117 4 0.278421 0.113925 0.0599108
1392 2 0.485754 0.146813 0.00809463
1393 4 0.49495 0.144478 0.0428849
473 4 0.0859667 0.228307 0.0199905
1244 4 0.0137089 0.228893 0.999313
471 2 0.121184 0.224164 0.0265474
472 4 0.156401 0.22002 0.0331041
566 4 0.248026 0.192752 0.0706226
893 4 0.239745 0.215649 0.0348763
1089 2 0.0496848 0.262591 0.0499596
1091 4 0.0350418 0.250564 0.0192782
1090 4 0.0643277 0.274617 0.0806411
891 2 0.258745 0.246217 0.0371235
892 4 0.277746 0.276784 0.0393712
1439 4 0.310654 0.273033 0.0566812
1256 4 0.0462283 0.396506 0.0273567
592 4 0.155343 0.384074 0.018173
591 2 0.173209 0.414315 0.0100075
236 4 0.0326802 0.540959 0.031217
234 2 0.0322869 0.519292 0.0600404
215 4 0.109428 0.551404 0.02524
214 4 0.162841 0.514083 0.0561573
213 2 0.136134 0.532743 0.0406988
407 4 0.182806 0.516286 0.0228526
405 2 0.216098 0.520173 0.0361558
1232 4 0.254258 0.596573 0.0815353
406 4 0.249389 0.52406 0.0494592
1018 4 0.0885751 0.308305 0.317565
1265 4 0.447914 0.514676 0.00931248
820 4 0.0263489 0.721425 0.0188604
839 4 0.00791364 0.643213 0.0592782
838 4 0.0317775 0.607589 0.00128598
837 2 0.0198455 0.625401 0.0302822
1230 2 0.287368 0.609597 0.0756636
1231 4 0.320478 0.622622 0.0697927
1444 4 0.372124 0.609947 0.0834353
1443 2 0.388577 0.618674 0.0525557
1445 4 0.40503 0.627402 0.0216761
143 4 0.385073 0.655895 0.0355227
141 2 0.377311 0.687373 0.0197332
184 4 0.160095 0.785556 0.0668626
183 2 0.14828 0.756381 0.049266
185 4 0.136465 0.727206 0.0316695
152 4 0.311212 0.730483 0.00456899
794 4 0.491207 0.957974 0.243676
189 2 0.413472 0.533866 0.483504
505 4 0.50932 0.745946 0.00665655
1137 2 0.459516 0.881065 0.000669897
792 2 0.487752 0.923369 0.253213
306 2 0.18877 0.985115 0.0112633
276 2 0.213128 0.0288043 0.0726129
1139 4 0.492749 0.879181 0.0145426
881 4 0.0614678 0.0197151 0.050024
722 4 0.357122 0.983947 0.0691397
153 2 0.0641421 0.249237 0.126724
154 4 0.0888831 0.2457 0.15272
155 4 0.0394015 0.252775 0.100728
664 4 0.149538 0.264581 0.0619955
663 2 0.154614 0.273511 0.0965627
665 4 0.159689 0.282442 0.13113
376 4 0.22574 0.234848 0.178619
1438 4 0.301473 0.289664 0.126257
1437 2 0.306063 0.281348 0.0914689
216 2 0.0541026 0.390264 0.124866
218 4 0.0900165 0.389569 0.121687
1148 4 0.20757 0.400171 0.120668
1146 2 0.215538 0.373334 0.143399
1147 4 0.223507 0.346497 0.16613
307 4 0.223093 0.985461 0.0223202
217 4 0.0181882 0.390959 0.128046
1345 4 0.344211 0.540626 0.184745
1344 2 0.318632 0.535962 0.159757
481 4 0.237923 0.587153 0.113338
480 2 0.251251 0.553727 0.115673
482 4 0.264578 0.520301 0.118007
1346 4 0.293053 0.531297 0.13477
1348 4 0.0487499 0.375549 0.0574315
1043 4 0.168451 0.672206 0.0895919
905 4 0.335572 0.603364 0.0990205
903 2 0.345597 0.622911 0.127618
904 4 0.355623 0.642459 0.156215
668 4 0.370595 0.65712 0.124167
1042 4 0.115376 0.69565 0.13243
71 4 0.121683 0.716815 0.160789
1041 2 0.141913 0.683928 0.111011
69 2 0.122971 0.751818 0.152212
318 2 0.477516 0.691148 0.167549
666 2 0.400458 0.675199 0.133212
667 4 0.43032 0.693276 0.142258
320 4 0.442803 0.687756 0.17671
804 2 0.0674158 0.800155 0.116949
806 4 0.0446404 0.810968 0.0911658
805 4 0.0901911 0.789341 0.142731
70 4 0.124259 0.78682 0.143635
983 4 0.260415 0.799072 0.153721
981 2 0.247415 0.766273 0.161179
982 4 0.234415 0.733474 0.168637
799 4 0.224648 0.972146 0.203652
1129 4 0.236195 0.822605 0.152678
1128 2 0.256916 0.850641 0.161898
278 4 0.180805 0.0316647 0.0883441
1510 4 0.298129 0.950136 0.18353
1509 2 0.311422 0.969158 0.155927
1511 4 0.324716 0.988178 0.128325
720 2 0.377531 0.997899 0.0953926
721 4 0.397941 0.0118507 0.121645
116 4 0.431227 0.246125 0.45508
593 4 0.191076 0.444555 0.00184219
98 4 0.258937 0.139757 0.197506
414 2 0.412657 0.0262008 0.175562
416 4 0.421472 0.0569503 0.158913
415 4 0.403842 0.995451 0.19221
1099 4 0.0707499 0.0962236 0.240911
1098 2 0.0706732 0.130325 0.229184
96 2 0.272067 0.121472 0.169334
97 4 0.285197 0.103188 0.141161
1078 4 0.500161 0.112318 0.201953
1100 4 0.0705962 0.164426 0.217458
1097 4 0.0593491 0.229856 0.163283
1095 2 0.0606749 0.214857 0.19605
1096 4 0.0620004 0.199858 0.228817
377 4 0.274008 0.193887 0.144065
375 2 0.249874 0.214368 0.161342
1519 4 0.265868 0.139122 0.481566
845 4 0.209571 0.332178 0.220583
844 4 0.229428 0.271694 0.186686
843 2 0.219499 0.301936 0.203635
280 4 0.31087 0.299453 0.161355
281 4 0.259906 0.34662 0.180836
279 2 0.285388 0.323036 0.171096
984 2 0.00301766 0.440674 0.156212
1496 4 0.402529 0.449328 0.218849
725 4 0.373017 0.46681 0.211537
723 2 0.395029 0.495326 0.209897
724 4 0.417041 0.523842 0.208257
131 4 0.0225532 0.679518 0.213071
129 2 0.00753613 0.648129 0.203606
1326 2 0.237749 0.653555 0.243836
1328 4 0.264053 0.662963 0.221033
126 2 0.458183 0.627159 0.235274
128 4 0.438761 0.611199 0.209419
127 4 0.477604 0.64312 0.261128
712 4 0.260243 0.741804 0.193391
713 4 0.30029 0.704697 0.240519
711 2 0.280267 0.72325 0.216956
1331 4 0.492088 0.660072 0.232336
825 2 0.488954 0.354656 0.0215439
971 4 0.00539888 0.784884 0.25274
1069 4 0.0583782 0.867278 0.225646
1068 2 0.0420615 0.86108 0.194091
1070 4 0.0257451 0.854881 0.162535
418 4 0.156289 0.878295 0.286538
417 2 0.15519 0.867099 0.252277
177 2 0.253923 0.912608 0.241459
179 4 0.28468 0.923523 0.226119
1130 4 0.277636 0.878679 0.171119
1292 4 0.283561 0.915708 0.186431
1290 2 0.315685 0.905132 0.198944
1291 4 0.34781 0.894557 0.211458
1045 4 0.423197 0.869999 0.435205
800 4 0.208695 0.928211 0.148726
798 2 0.216672 0.950178 0.176189
1227 2 0.44055 0.00174485 0.252779
1229 4 0.422945 0.992827 0.222597
140 4 0.0750738 0.0566085 0.274255
1286 4 0.0206258 0.0911811 0.287828
138 2 0.100017 0.0543032 0.300196
139 4 0.12496 0.0519976 0.326136
316 4 0.486264 0.0188574 0.261778
859 4 0.236179 0.118883 0.239772
858 2 0.239251 0.115162 0.275509
860 4 0.242324 0.111441 0.311246
686 4 0.478682 0.910824 0.456203
1019 4 0.0185029 0.323293 0.309386
945 2 0.289116 0.220152 0.318792
947 4 0.284513 0.204915 0.286434
181 4 0.474194 0.237457 0.317483
1495 4 0.409365 0.401792 0.272656
608 4 0.188573 0.441754 0.346388
1494 2 0.405947 0.42556 0.245753
626 4 0.200961 0.716701 0.283454
27 3 0.257244 0.553325 0.282272
30 3 0.208758 0.54737 0.304876
26 1 0.240783 0.540913 0.308265
29 3 0.252405 0.555151 0.336231
430 4 0.309593 0.593635 0.230974
429 2 0.305157 0.570724 0.258467
431 4 0.300721 0.547814 0.285959
852 2 0.454893 0.0291058 0.487795
1284 2 0.0140316 0.0838991 0.253131
625 4 0.1801 0.657085 0.318274
624 2 0.19053 0.686893 0.300864
1327 4 0.211445 0.644146 0.26664
162 2 0.32734 0.707953 0.281645
164 4 0.317517 0.680494 0.260433
163 4 0.337162 0.735411 0.302857
986 4 0.0120615 0.460139 0.185189
1262 4 0.240144 0.77402 0.302407
965 4 0.251639 0.753411 0.330466
1354 4 0.217493 0.758917 0.281406
1353 2 0.190116 0.760488 0.304824
1261 4 0.304378 0.779332 0.270044
1260 2 0.272261 0.776676 0.286225
1411 4 0.310395 0.810398 0.253403
419 4 0.154092 0.855903 0.218015
178 4 0.223166 0.901692 0.256797
1355 4 0.162738 0.762057 0.328242
1410 2 0.332294 0.834196 0.237451
1412 4 0.354194 0.857995 0.221499
511 4 0.0339493 0.983017 0.330731
532 4 0.114404 0.0166988 0.326035
1228 4 0.458156 0.0106624 0.28296
990 2 0.00949858 0.0548306 0.349613
992 4 0.99807 0.0374044 0.379043
991 4 0.0209271 0.0722567 0.320183
531 2 0.13578 0.00477297 0.352517
533 4 0.157155 0.992847 0.378999
1459 4 0.285914 0.0623142 0.373411
1458 2 0.310779 0.0724908 0.397464
1460 4 0.335645 0.0826673 0.421517
1432 4 0.364516 0.034647 0.307997
245 4 0.210343 0.138018 0.358651
187 4 0.184919 0.160472 0.371427
186 2 0.150283 0.150456 0.370782
244 4 0.265031 0.0914297 0.36501
243 2 0.237687 0.114724 0.361831
188 4 0.115646 0.14044 0.370136
782 4 0.147485 0.237954 0.392327
780 2 0.120562 0.227041 0.413692
447 2 0.297039 0.226697 0.402488
448 4 0.270549 0.235438 0.379635
946 4 0.293719 0.235389 0.35115
1270 4 0.406733 0.214086 0.397866
180 2 0.475454 0.227258 0.352049
598 4 0.0267048 0.395513 0.39066
902 4 0.0544267 0.387492 0.414285
1278 2 0.23998 0.391276 0.391431
606 2 0.186453 0.466816 0.372229
1013 4 0.157957 0.476924 0.42013
607 4 0.184333 0.491878 0.398071
940 4 0.23989 0.49396 0.406189
1497 2 0.288997 0.439479 0.355795
1498 4 0.293305 0.474741 0.349595
1279 4 0.270871 0.378462 0.377942
1499 4 0.28469 0.404217 0.361995
28 3 0.245704 0.507831 0.309392
1312 4 0.404629 0.592309 0.386974
1311 2 0.371437 0.590393 0.373009
1313 4 0.338245 0.588477 0.359043
1213 4 0.320228 0.597371 0.392427
660 2 0.450041 0.607203 0.391507
661 4 0.427901 0.635294 0.396096
662 4 0.472182 0.579112 0.386917
220 4 0.163085 0.74629 0.36536
106 4 0.396156 0.694724 0.364194
105 2 0.396341 0.717788 0.391915
107 4 0.396525 0.740851 0.419635
221 4 0.141675 0.813745 0.379253
219 2 0.15238 0.780018 0.372307
963 2 0.266705 0.753251 0.363229
1204 4 0.167349 0.826107 0.355393
964 4 0.28177 0.753091 0.395992
1074 2 0.30012 0.811939 0.408539
1075 4 0.302983 0.776348 0.413591
1203 2 0.183632 0.856682 0.365414
1205 4 0.199915 0.887258 0.375436
1076 4 0.297256 0.847529 0.403487
313 4 0.290619 0.879847 0.414988
250 4 0.351743 0.939522 0.323701
251 4 0.381502 0.88348 0.357983
249 2 0.366623 0.911501 0.340842
510 2 0.00907821 0.960244 0.343506
1177 4 0.195864 0.922205 0.369798
1176 2 0.223441 0.944807 0.364406
1178 4 0.251018 0.967409 0.359013
1481 4 0.285573 0.962954 0.370124
1479 2 0.320695 0.965603 0.377861
1480 4 0.355817 0.968252 0.385597
1433 4 0.369478 0.997983 0.369906
1431 2 0.366997 0.016315 0.338951
600 2 0.381067 0.0500814 0.432303
601 4 0.348085 0.0483896 0.417823
602 4 0.41405 0.0517731 0.446783
853 4 0.447455 0.0335312 0.452788
1062 2 0.191643 0.0988517 0.490728
1064 4 0.159048 0.0899335 0.478142
1285 4 0.0074376 0.0766174 0.218434
781 4 0.0936388 0.216128 0.435057
1485 2 0.0259365 0.615575 0.132977
744 2 0.17798 0.184944 0.465256
449 4 0.323528 0.217956 0.425342
1271 4 0.339777 0.190006 0.409641
793 4 0.484298 0.888763 0.262749
1269 2 0.373255 0.202046 0.403754
901 4 0.0255332 0.355153 0.471913
900 2 0.0399803 0.371323 0.443099
1280 4 0.20909 0.404091 0.404921
346 4 0.271294 0.415439 0.459392
345 2 0.270362 0.383027 0.475174
182 4 0.476715 0.217059 0.386614
1017 2 0.0535391 0.315799 0.313475
1347 2 0.055458 0.349225 0.0337151
630 2 0.406592 0.377923 0.500825
631 4 0.442224 0.374455 0.496492
1011 2 0.136016 0.464214 0.445771
1012 4 0.114076 0.451504 0.471412
1254 2 0.020008 0.416241 0.0124082
939 2 0.253731 0.505661 0.437364
305 4 0.117341 0.54187 0.425956
303 2 0.0995678 0.573245 0.426308
1028 4 0.254861 0.553552 0.480438
941 4 0.267571 0.517363 0.46854
301 4 0.294736 0.520904 0.492382
300 2 0.326944 0.505802 0.486467
302 4 0.359152 0.490701 0.480551
1323 2 0.0495391 0.659233 0.431451
1324 4 0.0302922 0.684619 0.448348
1325 4 0.0687858 0.633848 0.414553
304 4 0.0817949 0.60462 0.426661
1212 2 0.315376 0.616054 0.422887
1214 4 0.310525 0.634738 0.453347
1156 4 0.316097 0.623395 0.487538
83 4 0.0463905 0.677618 0.479543
190 4 0.39127 0.508294 0.471113
758 4 0.434234 0.66843 0.492578
756 2 0.425745 0.656009 0.459805
1026 2 0.238635 0.582734 0.494062
757 4 0.417256 0.643589 0.427032
684 2 0.494798 0.882217 0.471114
17 3 0.492553 0.854718 0.243612
1131 2 0.413568 0.83033 0.491063
1208 4 0.191441 0.914538 0.430428
314 4 0.21904 0.885786 0.421536
312 2 0.25483 0.882816 0.418262
1206 2 0.196279 0.914924 0.466161
1044 2 0.416345 0.902796 0.44854
1046 4 0.409494 0.935593 0.461875
1487 4 0.00579693 0.620538 0.162475
1132 4 0.419136 0.854465 0.464855
235 4 0.0318937 0.497625 0.0888636
1486 4 0.0460759 0.610613 0.103478
745 4 0.159121 0.191132 0.435149
115 4 0.469347 0.302534 0.478879
114 2 0.450287 0.27433 0.46698
649 4 0.480852 0.359879 0.0962294
562 4 0.0291819 0.958753 0.00894484
1517 4 0.0533944 0.983013 0.00881015
347 4 0.269431 0.350616 0.490956
856 4 0.0880827 0.436275 0.486922
142 4 0.369548 0.718851 0.00394369
328 4 0.162646 0.200625 0.000854176
1349 4 0.0621659 0.322901 0.00999867
741 2 0.131344 0.0461897 0.587907
743 4 0.114856 0.0660669 0.562738
742 4 0.147831 0.0263123 0.613075
254 4 0.290432 0.0566793 0.602772
295 4 0.398312 0.0422132 0.597991
294 2 0.406472 0.0672166 0.57332
570 2 0.160536 0.128964 0.55771
572 4 0.185282 0.136324 0.582886
252 2 0.300453 0.0652655 0.569212
1518 2 0.262894 0.145211 0.516985
1520 4 0.25992 0.1513 0.552404
478 4 0.325692 0.113259 0.551558
479 4 0.382921 0.150512 0.574766
477 2 0.354307 0.131886 0.563162
296 4 0.414632 0.0922197 0.548649
746 4 0.196838 0.178757 0.495364
56 4 0.190794 0.2179 0.509941
54 2 0.218898 0.228118 0.530095
1483 4 0.185215 0.166839 0.593614
434 4 0.482699 0.0628656 0.751343
957 2 0.37259 0.239677 0.512168
959 4 0.358907 0.272582 0.517691
935 4 0.465395 0.951536 0.853304
1516 4 0.0805003 0.938767 0.958718
55 4 0.247002 0.238336 0.550249
369 2 0.215929 0.282901 0.591931
370 4 0.2364 0.275351 0.563219
371 4 0.195457 0.29045 0.620643
272 4 0.178822 0.324456 0.607942
393 2 0.30497 0.254811 0.550903
394 4 0.274406 0.262053 0.568618
1397 4 0.261462 0.271262 0.531227
1395 2 0.250551 0.30515 0.525508
395 4 0.335538 0.247569 0.533194
832 4 0.494664 0.97213 0.853135
81 2 0.0385602 0.69062 0.512254
1321 4 0.0414806 0.445977 0.814042
692 4 0.287183 0.39267 0.573241
93 2 0.00317928 0.865385 0.766117
876 2 0.00378007 0.4905 0.53383
877 4 0.0358437 0.506968 0.532767
857 4 0.0548549 0.476973 0.53633
855 2 0.0714691 0.456625 0.511626
690 2 0.302807 0.405402 0.543338
691 4 0.318431 0.418134 0.513435
488 4 0.464049 0.984333 0.645778
1027 4 0.222409 0.611914 0.507686
1428 2 0.0290862 0.174022 0.761047
49 3 0.248009 0.900965 0.967245
1202 4 0.449085 0.542749 0.524229
191 4 0.435674 0.559438 0.495894
1200 2 0.473403 0.569318 0.522468
1049 4 0.147064 0.619432 0.521705
1047 2 0.124684 0.633638 0.546153
1048 4 0.102304 0.647845 0.570602
1155 2 0.319043 0.600808 0.515495
226 4 0.329306 0.597503 0.579266
1157 4 0.32199 0.578221 0.543452
82 4 0.0307298 0.703622 0.544965
589 4 0.0407497 0.669717 0.554026
75 2 0.200509 0.738263 0.552378
76 4 0.203883 0.70908 0.573291
502 4 0.46236 0.748156 0.558374
264 2 0.131143 0.856804 0.891064
708 2 0.147737 0.796116 0.555646
709 4 0.129202 0.826757 0.559888
77 4 0.197135 0.767446 0.531464
710 4 0.166273 0.765475 0.551404
299 4 0.346841 0.640652 0.531666
503 4 0.439504 0.795483 0.508983
501 2 0.450932 0.771819 0.533679
58 4 0.112132 0.857613 0.562929
57 2 0.119659 0.862212 0.597895
1207 4 0.201118 0.915309 0.501894
206 4 0.274486 0.83771 0.558153
899 4 0.287659 0.915245 0.518233
898 4 0.218295 0.919129 0.537605
897 2 0.252977 0.917187 0.527919
854 4 0.46233 0.0246807 0.522803
266 4 0.1226 0.82247 0.898033
1429 4 0.0251559 0.160859 0.794389
1426 4 0.0851197 0.0388695 0.665853
738 2 0.30219 0.0904075 0.674253
359 4 0.330233 0.0548939 0.642986
357 2 0.350893 0.034547 0.621548
358 4 0.371554 0.0142002 0.600111
740 4 0.318748 0.0585093 0.677209
486 2 0.441772 0.980884 0.617632
571 4 0.13579 0.121603 0.532534
813 2 0.22469 0.0916572 0.649061
814 4 0.197602 0.0727759 0.634565
253 4 0.310475 0.0738518 0.535653
815 4 0.251779 0.110538 0.663556
739 4 0.285632 0.122306 0.671297
1471 4 0.488693 0.789639 0.975858
1470 2 0.459186 0.809554 0.970098
1484 4 0.147596 0.226693 0.607888
92 4 0.105086 0.191154 0.741649
1482 2 0.166406 0.196766 0.600751
673 4 0.445063 0.33359 0.646355
672 2 0.422925 0.322855 0.67272
270 2 0.152666 0.338125 0.587219
271 4 0.12651 0.351794 0.566496
123 2 0.295701 0.41809 0.631157
125 4 0.278352 0.413903 0.599822
1133 4 0.407999 0.806195 0.517272
1142 4 0.165537 0.387697 0.652453
1141 4 0.0948872 0.401487 0.647963
1140 2 0.130212 0.394592 0.650208
1334 4 0.179258 0.419244 0.663613
544 4 0.259188 0.567052 0.691868
410 4 0.429633 0.564457 0.651279
543 2 0.277629 0.597914 0.694668
545 4 0.296071 0.628776 0.697468
225 2 0.333947 0.630958 0.591903
227 4 0.338587 0.664412 0.604539
1059 2 0.488355 0.65121 0.643715
588 2 0.0254798 0.667466 0.586617
590 4 0.01021 0.665215 0.619208
325 4 0.188606 0.73047 0.593393
324 2 0.185209 0.71165 0.623966
326 4 0.181812 0.692831 0.654539
828 2 0.326022 0.75207 0.626258
1266 2 0.474733 0.734382 0.620838
1061 4 0.471604 0.655344 0.612049
718 4 0.0930572 0.801777 0.700052
830 4 0.310452 0.751182 0.593744
65 4 0.371387 0.753177 0.650995
63 2 0.401812 0.754201 0.631668
1267 4 0.443716 0.734781 0.639229
64 4 0.432239 0.755226 0.61234
59 4 0.127186 0.866811 0.632861
1154 4 0.158632 0.874842 0.617964
1152 2 0.192315 0.87724 0.630617
1153 4 0.225999 0.879638 0.64327
205 4 0.256421 0.865462 0.622225
204 2 0.265454 0.851586 0.590189
490 4 0.380767 0.855671 0.662934
491 4 0.360465 0.874835 0.596434
489 2 0.370616 0.865253 0.629684
1259 4 0.456893 0.89912 0.667234
487 4 0.419494 0.977434 0.589486
1425 2 0.105642 0.0173259 0.686228
700 4 0.0273239 0.0225112 0.535261
1309 4 0.0871897 0.0695775 0.707148
1308 2 0.105005 0.100436 0.712698
1310 4 0.12282 0.131294 0.718248
587 4 0.484422 0.0946667 0.747094
586 4 0.476835 0.16255 0.723948
585 2 0.480628 0.128608 0.735521
1430 4 0.0330175 0.187185 0.727704
3 3 0.0257837 0.205744 0.686741
4 3 0.0107357 0.249907 0.657971
1 1 0.0121476 0.236255 0.688492
90 2 0.0824221 0.189288 0.713662
91 4 0.0597573 0.187422 0.685675
997 4 0.406815 0.202658 0.66246
996 2 0.435736 0.194403 0.682357
788 4 0.364683 0.943169 0.963766
998 4 0.464657 0.186149 0.702253
754 4 0.498077 0.193201 0.717324
1419 2 0.139517 0.309516 0.768688
1421 4 0.120454 0.326846 0.79392
1420 4 0.15858 0.292186 0.743456
547 4 0.172433 0.263319 0.757043
674 4 0.400787 0.312119 0.699084
972 2 0.461567 0.301823 0.749332
973 4 0.437694 0.298123 0.776105
1332 2 0.208804 0.435696 0.676135
1333 4 0.238349 0.452148 0.688657
727 4 0.248946 0.414128 0.69482
726 2 0.265919 0.382718 0.699901
728 4 0.282893 0.35131 0.704981
1196 4 0.416095 0.843414 0.934713
1080 2 0.471645 0.37451 0.715874
124 4 0.313049 0.422277 0.662493
1301 4 0.250503 0.481425 0.71044
1299 2 0.277618 0.503878 0.702624
50 3 0.294778 0.873372 0.967038
47 3 0.277378 0.896907 0.921865
616 4 0.147472 0.569031 0.683377
615 2 0.178332 0.55157 0.676804
617 4 0.209191 0.534108 0.670232
1300 4 0.304734 0.52633 0.694808
1360 4 0.302726 0.53508 0.731958
1359 2 0.297978 0.552805 0.763002
1515 2 0.0669471 0.96089 0.983764
1406 4 0.282756 0.659615 0.684398
409 4 0.451179 0.607354 0.705105
408 2 0.440406 0.585906 0.678192
1057 4 0.430329 0.623629 0.727293
1056 2 0.420081 0.6581 0.729966
717 2 0.0834942 0.767337 0.695277
719 4 0.0739313 0.732896 0.690503
1040 4 0.0515754 0.710906 0.705782
1038 2 0.0427014 0.684975 0.729217
13 3 0.245341 0.688422 0.781376
704 4 0.195393 0.736005 0.69699
1405 4 0.221331 0.686884 0.658224
1404 2 0.252044 0.67325 0.671311
829 4 0.34159 0.752957 0.658773
353 4 0.342268 0.708906 0.658052
352 4 0.387301 0.712626 0.714264
351 2 0.364785 0.710766 0.686158
703 4 0.147692 0.789611 0.689737
1466 4 0.119212 0.811782 0.67909
702 2 0.171542 0.762808 0.693364
1277 4 0.214048 0.806521 0.741328
949 4 0.445951 0.779249 0.746373
948 2 0.441287 0.807841 0.724897
1464 2 0.120834 0.841127 0.699987
1465 4 0.122456 0.870471 0.720884
737 4 0.127788 0.906224 0.723507
950 4 0.436623 0.836432 0.703423
735 2 0.113537 0.938788 0.717431
736 4 0.0992864 0.971352 0.711356
1427 4 0.126163 0.995782 0.706602
1258 4 0.469522 0.960022 0.703746
1257 2 0.463208 0.929571 0.68549
1088 4 0.164786 0.0383232 0.800402
1086 2 0.14608 0.0241376 0.827774
523 4 0.185715 0.0599554 0.78603
1032 2 0.311377 0.0279481 0.787985
1033 4 0.341621 0.0159839 0.80356
1054 4 0.494568 0.50527 0.679424
958 4 0.386272 0.206773 0.506646
522 2 0.16793 0.0908879 0.780807
524 4 0.150147 0.121821 0.775584
671 4 0.131324 0.118742 0.806544
258 2 0.411884 0.111673 0.817856
259 4 0.424309 0.145416 0.815131
698 4 0.0241082 0.293884 0.826547
696 2 0.0433603 0.270164 0.807386
546 2 0.204279 0.248178 0.764589
460 4 0.249407 0.204845 0.788801
548 4 0.236125 0.233036 0.772135
459 2 0.272164 0.20282 0.816701
461 4 0.294921 0.200795 0.844601
297 2 0.342224 0.676195 0.527686
697 4 0.0626118 0.246445 0.788224
767 4 0.202686 0.318023 0.876923
765 2 0.207585 0.296328 0.848537
766 4 0.212484 0.274634 0.820151
1081 4 0.441747 0.363088 0.732488
974 4 0.485439 0.305523 0.722559
1513 4 0.376028 0.470145 0.748453
1371 2 0.0345705 0.496796 0.744801
1373 4 0.0328555 0.504169 0.709543
1512 2 0.365599 0.435722 0.751044
1514 4 0.355169 0.401299 0.753635
161 4 0.488631 0.462723 0.788075
159 2 0.493879 0.455025 0.822911
1472 4 0.429679 0.829468 0.964338
1372 4 0.0362855 0.489424 0.780058
1361 4 0.293231 0.570531 0.794045
331 4 0.0350446 0.623524 0.74771
330 2 0.0233303 0.59326 0.763435
332 4 0.011616 0.562996 0.77916
1039 4 0.0338275 0.659043 0.752652
12 3 0.218435 0.657865 0.745589
1194 2 0.397898 0.869401 0.917569
11 1 0.218277 0.686835 0.761757
14 3 0.218909 0.711714 0.739384
15 3 0.191057 0.68888 0.780025
388 4 0.441828 0.697069 0.732222
1058 4 0.409831 0.69257 0.73264
387 2 0.459204 0.727678 0.740067
1275 2 0.18881 0.816786 0.764952
1253 4 0.36806 0.727089 0.778251
1252 4 0.346737 0.730939 0.847042
1251 2 0.357398 0.729014 0.812646
157 4 0.452423 0.786187 0.828819
150 2 0.326318 0.755758 0.983751
389 4 0.476581 0.758287 0.747911
94 4 0.0107675 0.898958 0.755361
1276 4 0.163573 0.827051 0.788576
87 2 0.434217 0.868139 0.771576
89 4 0.435761 0.846841 0.742516
88 4 0.432673 0.889436 0.800635
534 2 0.0343506 0.935673 0.795132
535 4 0.0264053 0.955167 0.824412
536 4 0.042296 0.91618 0.765852
1501 4 0.191388 0.00818979 0.811427
1500 2 0.19731 0.999224 0.777004
1034 4 0.281134 0.0399126 0.77241
1502 4 0.203231 0.990259 0.74258
1087 4 0.127374 0.00995085 0.855147
763 4 0.102825 0.00313958 0.892202
762 2 0.107591 0.979442 0.918963
5 3 0.0298954 0.255331 0.708491
669 2 0.106723 0.13213 0.829259
670 4 0.0821214 0.145518 0.851973
382 4 0.0669985 0.174649 0.867523
1390 4 0.239595 0.104467 0.880661
1389 2 0.262711 0.122345 0.90179
260 4 0.399458 0.0779302 0.820581
641 4 0.408263 0.0864749 0.945261
1201 4 0.497722 0.595887 0.520706
372 2 0.490278 0.172918 0.859415
383 4 0.0991966 0.2367 0.885261
381 2 0.0830977 0.205674 0.876392
404 4 0.321482 0.213281 0.822192
402 2 0.349963 0.218752 0.843622
403 4 0.378445 0.224222 0.865053
232 4 0.408819 0.245181 0.873392
373 4 0.476922 0.206335 0.8571
233 4 0.463983 0.227373 0.830479
231 2 0.436402 0.236277 0.851936
84 2 0.130849 0.2958 0.894617
86 4 0.114349 0.269836 0.875802
85 4 0.147349 0.321765 0.913431
151 4 0.341424 0.781032 0.962932
1320 2 0.015239 0.441071 0.838285
1138 4 0.426284 0.882948 0.986797
635 4 0.463141 0.448567 0.857925
633 2 0.438631 0.463652 0.879653
634 4 0.414121 0.478738 0.901381
1006 4 0.0666782 0.538899 0.924177
1007 4 0.0770389 0.588273 0.872637
1005 2 0.0718587 0.563586 0.898407
37 3 0.183218 0.559699 0.925295
836 4 0.179563 0.679518 0.918951
834 2 0.203229 0.674143 0.892279
835 4 0.226895 0.668767 0.865606
508 4 0.257072 0.657215 0.848459
507 2 0.280849 0.640281 0.869633
509 4 0.304625 0.623347 0.890806
994 4 0.003336 0.710002 0.856312
1110 2 0.0700367 0.693277 0.859673
1111 4 0.0415445 0.701325 0.839085
1112 4 0.0985284 0.685229 0.880261
977 4 0.243836 0.802852 0.872408
975 2 0.207928 0.805015 0.86988
976 4 0.172021 0.807179 0.867352
869 4 0.382138 0.705911 0.888387
867 2 0.399367 0.737245 0.883721
868 4 0.416596 0.768579 0.879054
790 4 0.0824703 0.65727 0.936104
156 2 0.48444 0.785099 0.845375
265 4 0.139687 0.891139 0.884095
103 4 0.297079 0.962348 0.815575
933 2 0.445946 0.922406 0.84473
934 4 0.426496 0.893274 0.836156
582 2 0.0632701 0.989239 0.857796
583 4 0.0343933 0.967659 0.858713
584 4 0.0921469 0.0108193 0.85688
102 2 0.286665 0.930728 0.829437
104 4 0.276252 0.899108 0.843299
786 2 0.382082 0.958804 0.936321
787 4 0.399482 0.974439 0.908877
764 4 0.112357 0.955744 0.945724
640 4 0.461096 0.13542 0.941435
1391 4 0.285827 0.140223 0.922919
1385 4 0.312746 0.119917 0.933909
1383 2 0.344909 0.104317 0.929157
1384 4 0.377073 0.088718 0.924404
639 2 0.434679 0.110948 0.943348
1394 4 0.476557 0.149148 0.973304
821 4 0.0287822 0.675389 0.963396
327 2 0.174031 0.201442 0.966647
329 4 0.185415 0.20226 0.932439
819 2 0.0275655 0.698407 0.991128
1450 4 0.145044 0.301139 0.943386
1449 2 0.159466 0.281227 0.969766
1451 4 0.173888 0.261314 0.996146
1195 4 0.3797 0.895389 0.900425
1263 2 0.47392 0.525245 0.986676
48 3 0.295758 0.92749 0.962672
46 1 0.279078 0.899541 0.954893
1114 4 0.173459 0.465194 0.980464
1113 2 0.163272 0.496753 0.966301
705 2 0.304558 0.460898 0.928139
706 4 0.299501 0.433791 0.904901
707 4 0.309616 0.488006 0.951377
826 4 0.468613 0.370358 0.996244
1115 4 0.153085 0.528313 0.952137
39 3 0.133799 0.537425 0.925689
1504 4 0.433075 0.578097 0.922669
40 3 0.145573 0.579003 0.958574
36 1 0.15085 0.566046 0.928857
38 3 0.141389 0.587666 0.90513
791 4 0.130447 0.60342 0.935899
789 2 0.106459 0.630345 0.936002
1505 4 0.405474 0.583278 0.989099
1503 2 0.419275 0.580688 0.955884
1396 4 0.239638 0.33904 0.519782
1063 4 0.224238 0.10777 0.503313
632 4 0.370961 0.381391 0.505158
298 4 0.337608 0.711737 0.523707
1065 2 0.807371 0.0615977 0.0615361
1067 4 0.802349 0.0967372 0.0551807
428 4 0.661448 0.17643 0.00995398
1448 4 0.77475 0.103561 0.0781829
1120 4 0.996522 0.309962 0.284585
1329 2 0.506436 0.687466 0.250887
1434 2 0.537237 0.208948 0.020578
1435 4 0.557158 0.187013 0.0411307
427 4 0.63433 0.115749 0.0379577
426 2 0.647889 0.146089 0.0239559
760 4 0.691643 0.205728 0.0161585
1235 4 0.69654 0.244934 0.0053703
759 2 0.722622 0.194532 0.00148297
932 4 0.83529 0.201794 0.0746819
827 4 0.509295 0.338954 0.046844
42 3 0.917716 0.403461 0.00841055
1189 4 0.912421 0.365675 0.013707
1188 2 0.886445 0.356153 0.0368368
1282 4 0.984311 0.379223 0.477163
130 4 0.992519 0.616739 0.194141
969 2 0.99762 0.810955 0.229073
914 4 0.70176 0.430042 0.0281833
912 2 0.710594 0.449587 0.0571715
613 4 0.50889 0.652915 0.489788
895 4 0.595778 0.634734 0.120937
1172 4 0.639015 0.58915 0.0594201
890 4 0.964402 0.592994 0.0678487
289 4 0.631267 0.99686 0.489445
894 2 0.587333 0.617967 0.0901481
896 4 0.578889 0.6012 0.059359
1170 2 0.667334 0.61099 0.0640508
1105 4 0.725016 0.662035 0.0663232
1171 4 0.695654 0.63283 0.0686818
1004 4 0.715289 0.658542 0.0301984
1104 2 0.745438 0.633778 0.0755376
1106 4 0.76586 0.605521 0.0847517
888 2 0.943645 0.600913 0.0394437
110 4 0.749035 0.727926 0.0838851
682 4 0.752742 0.719079 0.0472337
681 2 0.777116 0.745599 0.0455138
683 4 0.80149 0.77212 0.0437946
962 4 0.961881 0.724637 0.0419166
960 2 0.955244 0.757254 0.0280442
961 4 0.948606 0.789872 0.0141718
349 4 0.557839 0.862304 0.00329376
423 2 0.619331 0.831051 0.0838786
424 4 0.624095 0.801729 0.0634352
549 2 0.736278 0.91555 0.413161
437 4 0.534494 0.983934 0.433972
1094 4 0.726037 0.0028563 0.0606165
1092 2 0.735911 0.00822361 0.0263513
541 4 0.862915 0.977059 0.0270547
540 2 0.862143 0.947972 0.048357
685 4 0.510913 0.853609 0.486025
563 4 0.95738 0.962151 0.0030787
1066 4 0.812394 0.0264582 0.0678916
1079 4 0.516018 0.0651098 0.149785
1447 4 0.749767 0.147489 0.129639
1446 2 0.762258 0.125525 0.103911
730 4 0.536607 0.17053 0.0669669
729 2 0.55309 0.154245 0.0945988
731 4 0.569573 0.13796 0.12223
292 4 0.740547 0.217064 0.171421
773 4 0.722224 0.184816 0.176884
293 4 0.794067 0.186852 0.133681
291 2 0.767307 0.201958 0.152551
930 2 0.855902 0.199548 0.104186
931 4 0.876515 0.197302 0.13369
1035 2 0.904806 0.178143 0.173641
1036 4 0.878298 0.201891 0.16783
650 4 0.542233 0.333854 0.123737
648 2 0.511542 0.346866 0.109983
816 2 0.642651 0.215583 0.145048
818 4 0.661596 0.205262 0.116153
1489 4 0.704539 0.313484 0.172818
1488 2 0.694058 0.326352 0.140803
811 4 0.5224 0.542344 0.29842
1190 4 0.860468 0.346632 0.0599671
1051 4 0.853876 0.360622 0.0940688
1124 4 0.594286 0.466635 0.0829834
913 4 0.719428 0.469133 0.0861597
785 4 0.738128 0.390175 0.094277
784 4 0.760123 0.42721 0.152124
783 2 0.749125 0.408692 0.1232
1050 2 0.846749 0.394221 0.105057
1052 4 0.839622 0.42782 0.116045
1122 2 0.594322 0.489355 0.110987
338 4 0.577282 0.542727 0.151473
1123 4 0.594357 0.512076 0.138991
1423 4 0.829093 0.559152 0.140573
1422 2 0.833032 0.523929 0.147225
267 2 0.78437 0.578776 0.118788
268 4 0.816048 0.565252 0.10811
643 4 0.504299 0.974869 0.0804621
627 2 0.726757 0.619163 0.154542
629 4 0.722815 0.654692 0.149789
269 4 0.752692 0.5923 0.129466
581 4 0.644639 0.742633 0.41813
550 4 0.718768 0.885605 0.403306
1168 4 0.880083 0.659907 0.149461
1468 4 0.59798 0.667797 0.164822
1467 2 0.569595 0.684751 0.150427
108 2 0.731134 0.710178 0.109672
109 4 0.713234 0.69243 0.13546
556 4 0.692719 0.830731 0.0776013
1298 4 0.796656 0.78934 0.0771587
1296 2 0.796716 0.781394 0.112334
1297 4 0.796777 0.773448 0.147509
1160 4 0.827982 0.768734 0.170569
425 4 0.614568 0.860374 0.104322
1192 4 0.634226 0.888056 0.120619
1191 2 0.660639 0.912582 0.119478
557 4 0.758975 0.845605 0.101903
555 2 0.725847 0.838167 0.0897526
80 4 0.780463 0.871009 0.0801451
78 2 0.811395 0.881978 0.0652015
79 4 0.842327 0.892948 0.0502583
542 4 0.861371 0.918886 0.0696591
872 4 0.967362 0.889225 0.114828
870 2 0.980069 0.86961 0.142291
1193 4 0.687051 0.937107 0.118338
496 4 0.681444 0.936652 0.154244
1209 2 0.633188 0.0217806 0.226251
1210 4 0.610001 0.0490778 0.222051
1211 4 0.656375 0.994484 0.230451
539 4 0.998191 0.103305 0.19399
1077 2 0.508089 0.0887136 0.175869
60 2 0.607739 0.121128 0.159061
61 4 0.615207 0.096032 0.183857
62 4 0.600272 0.146224 0.134265
538 4 0.959965 0.152352 0.157454
537 2 0.979078 0.127828 0.175722
341 4 0.602223 0.245255 0.202188
772 4 0.665654 0.185797 0.221611
771 2 0.693939 0.185306 0.199248
132 2 0.819592 0.210342 0.224522
133 4 0.799183 0.238125 0.235107
134 4 0.84 0.182559 0.213938
1037 4 0.931313 0.154395 0.179453
339 2 0.586028 0.275212 0.214051
340 4 0.569834 0.305168 0.225915