ITEM: TIMESTEP
1093000
ITEM: NUMBER OF ATOMS
1520
ITEM: BOX BOUNDS pp pp pp
-6.9326749999999997e+00 6.9326749999999997e+00
-6.9326749999999997e+00 6.9326749999999997e+00
-6.9326749999999997e+00 6.9326749999999997e+00
ITEM: ATOMS id type xs ys zs
1378 4 0.0077275 0.0844925 0.0696731
1377 2 0.00484459 0.053237 0.0519192
1379 4 0.00196122 0.0219814 0.0341653
1060 4 0.17338 0.0478474 0.0358855
505 4 0.43294 0.981819 0.142484
231 2 0.0466582 0.875912 0.000344497
1251 2 0.48707 0.741226 0.48595
1342 4 0.0129063 0.148157 0.0621598
145 4 0.165072 0.90779 0.00915013
594 2 0.0557648 0.122339 0.062988
596 4 0.0231638 0.117007 0.0774514
296 4 0.185012 0.138431 0.0608245
294 2 0.200986 0.107233 0.0693071
295 4 0.216959 0.0760357 0.0777904
1066 4 0.494033 0.66846 0.469635
353 4 0.000768889 0.110808 0.270434
25 3 0.382019 0.137551 0.0554206
21 1 0.373514 0.105843 0.0564509
24 3 0.381022 0.091057 0.0273829
22 3 0.340821 0.103459 0.0615666
490 4 0.416571 0.121244 0.0494921
23 3 0.389533 0.0905331 0.0815295
907 4 0.108341 0.198552 0.0604936
1298 4 0.231525 0.237485 0.0447841
1296 2 0.228002 0.233841 0.00908082
1223 4 0.0141982 0.0205975 0.401186
106 4 0.0250728 0.548067 0.372799
489 2 0.439686 0.141477 0.0306035
491 4 0.462799 0.16171 0.011716
198 2 0.473515 0.234705 0.0745924
326 4 0.00746556 0.834707 0.318577
1009 4 0.00663351 0.665927 0.0985616
1500 2 0.49585 0.545249 0.0544292
82 4 0.0623435 0.525459 0.0272447
1004 4 0.224445 0.40563 0.104687
376 4 0.409637 0.480416 0.0779446
1484 4 0.442117 0.535903 0.127863
954 2 0.256401 0.848623 0.452416
602 4 0.305014 0.483964 0.0210062
375 2 0.37472 0.478907 0.0690603
1465 4 0.271489 0.495028 0.466368
1501 4 0.467363 0.566883 0.0498645
81 2 0.0919891 0.508992 0.039508
1056 2 0.162611 0.525017 0.0668755
1058 4 0.149977 0.507968 0.0377178
83 4 0.121634 0.492524 0.0517709
1057 4 0.175244 0.542066 0.0960328
689 4 0.367751 0.552099 0.0806626
687 2 0.401556 0.552545 0.0681163
688 4 0.435361 0.552991 0.0555699
556 4 0.328405 0.703226 0.0932347
634 4 0.47237 0.588099 0.0275663
1147 4 0.439643 0.619604 0.0275125
1146 2 0.422324 0.647894 0.0133675
364 4 0.0382082 0.731438 0.0370726
363 2 0.0350436 0.719254 0.00328011
633 2 0.493524 0.601852 0.00180409
928 4 0.379246 0.642899 0.500593
911 4 0.410676 0.824723 0.0686524
653 4 0.438412 0.800434 0.0521375
651 2 0.446902 0.797924 0.0171795
233 4 0.0483589 0.905039 0.0215376
204 2 0.437086 0.82992 0.482576
1010 4 0.0079464 0.594047 0.104323
1008 2 0.00728979 0.629987 0.101442
892 4 0.0222964 0.931823 0.0112805
891 2 0.0194145 0.962318 0.0303107
893 4 0.0165336 0.992814 0.0493418
1059 2 0.161835 0.0327829 0.0665482
1482 2 0.477359 0.541833 0.132679
506 4 0.438829 0.0409549 0.18335
504 2 0.435884 0.0113869 0.162917
1218 2 0.0618491 0.155776 0.145742
1219 4 0.0666486 0.133513 0.1737
595 4 0.0883648 0.12767 0.0485241
1220 4 0.0570495 0.178039 0.117783
908 4 0.063091 0.212747 0.114831
906 2 0.0857164 0.205649 0.0876621
80 4 0.272726 0.298851 0.116855
126 2 0.355215 0.949195 0.439891
587 4 0.493712 0.192527 0.129648
158 4 0.0754679 0.982539 0.498315
79 4 0.240727 0.245801 0.0799297
78 2 0.256726 0.272326 0.098393
544 4 0.302389 0.297219 0.132859
1128 2 0.0962533 0.393868 0.129572
1129 4 0.11934 0.376123 0.108298
1130 4 0.0731667 0.411613 0.150846
1002 2 0.212424 0.399463 0.0712521
369 2 0.441087 0.360639 0.156706
370 4 0.435373 0.394868 0.146901
655 4 0.0975465 0.825553 0.483608
1253 4 0.45292 0.752514 0.48854
904 4 0.00506786 0.45668 0.144564
1003 4 0.200404 0.393295 0.0378169
625 4 0.298726 0.452403 0.168698
377 4 0.339803 0.477398 0.0601758
358 4 0.175788 0.579168 0.103195
357 2 0.200061 0.599195 0.120808
359 4 0.224335 0.619221 0.13842
784 4 0.260206 0.620354 0.155459
783 2 0.293807 0.619815 0.142377
785 4 0.327407 0.619274 0.129296
555 2 0.340601 0.669848 0.0993645
557 4 0.352798 0.636471 0.105494
703 4 0.469223 0.585709 0.191284
702 2 0.464385 0.621405 0.189608
704 4 0.459547 0.657101 0.187932
254 4 0.389718 0.910622 0.408903
1164 2 0.234978 0.708749 0.0972387
1166 4 0.202523 0.693577 0.101357
1165 4 0.267432 0.723922 0.0931213
245 4 0.465427 0.738571 0.167425
823 4 0.124785 0.781676 0.212655
822 2 0.139945 0.774331 0.18077
824 4 0.155105 0.766985 0.148886
169 4 0.3029 0.809577 0.136693
1025 4 0.472262 0.731728 0.133899
1023 2 0.475705 0.766251 0.124065
1024 4 0.479149 0.800775 0.114231
168 2 0.28775 0.841612 0.130013
170 4 0.272601 0.873648 0.123334
909 2 0.420399 0.859379 0.070856
910 4 0.430122 0.894035 0.0730601
314 4 0.0701231 0.962564 0.119095
951 2 0.00312682 0.972482 0.122121
953 4 0.0343461 0.955969 0.114838
312 2 0.0831063 0.92897 0.120904
313 4 0.09609 0.895376 0.122713
1061 4 0.150292 0.0177187 0.097211
417 2 0.0843173 0.0705656 0.149652
1160 4 0.137893 0.0537359 0.152605
418 4 0.104931 0.0423839 0.140637
1158 2 0.171475 0.0469374 0.163849
1159 4 0.205058 0.0401385 0.175093
757 4 0.301222 0.959423 0.258128
351 2 0.0169348 0.141999 0.262298
419 4 0.063706 0.0987474 0.158667
656 4 0.0259486 0.833985 0.481549
88 4 0.412594 0.0350065 0.201479
89 4 0.421123 0.106605 0.203129
87 2 0.416859 0.0708065 0.202304
352 4 0.0331004 0.17319 0.254164
717 2 0.124057 0.279331 0.232415
718 4 0.13763 0.306054 0.212363
719 4 0.110483 0.252609 0.252468
543 2 0.322242 0.302886 0.162424
545 4 0.342095 0.308555 0.19199
567 2 0.014482 0.348544 0.192193
568 4 0.995602 0.353611 0.16189
1139 4 0.143887 0.421807 0.218239
371 4 0.4468 0.32641 0.16651
903 2 0.0377559 0.45535 0.159735
905 4 0.0704432 0.454021 0.174907
1138 4 0.0782386 0.419904 0.188435
1137 2 0.111063 0.420856 0.203337
624 2 0.267218 0.469939 0.168389
1105 4 0.380477 0.527763 0.200947
127 4 0.351877 0.962262 0.473336
444 2 0.240012 0.530462 0.212029
446 4 0.231206 0.497621 0.200016
626 4 0.23571 0.487476 0.168079
1106 4 0.411177 0.499922 0.259972
1104 2 0.395827 0.513842 0.230459
1450 4 0.373261 0.587507 0.160212
776 4 0.16197 0.572993 0.157008
775 4 0.120187 0.599404 0.209529
774 2 0.141079 0.586198 0.183269
271 4 0.134972 0.636951 0.226664
95 4 0.274413 0.592423 0.23127
1449 2 0.368776 0.607333 0.189998
1451 4 0.364291 0.627159 0.219785
44 3 0.0519925 0.754675 0.225781
244 4 0.490075 0.675563 0.192407
243 2 0.477751 0.707067 0.179916
45 3 0.00629686 0.782989 0.218094
41 1 0.0338991 0.78099 0.235785
43 3 0.0517341 0.809094 0.232333
575 4 0.0486993 0.828623 0.202008
613 4 0.233253 0.80756 0.20223
573 2 0.0664029 0.856886 0.215726
1447 4 0.177184 0.872408 0.178145
614 4 0.213113 0.869158 0.170582
612 2 0.223183 0.838359 0.186406
1446 2 0.164248 0.887497 0.208235
112 4 0.397023 0.848834 0.204379
111 2 0.385692 0.855541 0.23795
113 4 0.374362 0.862248 0.271522
756 2 0.323429 0.959051 0.229718
758 4 0.345636 0.958679 0.201308
1464 2 0.259641 0.470015 0.489483
389 4 0.0201101 0.651236 0.226111
674 4 0.0160275 0.139386 0.337798
986 4 0.113515 0.122596 0.321951
984 2 0.126233 0.139973 0.293025
985 4 0.138952 0.15735 0.2641
1280 4 0.280287 0.117056 0.249277
1278 2 0.298 0.147707 0.242407
1279 4 0.315711 0.178359 0.235539
1397 4 0.313562 0.184352 0.273372
1395 2 0.329206 0.179062 0.30543
1396 4 0.344851 0.173772 0.337487
583 4 0.371397 0.153073 0.353424
623 4 0.373898 0.324359 0.18988
1348 4 0.196618 0.342007 0.357769
621 2 0.370105 0.312939 0.223874
622 4 0.366313 0.301518 0.257868
1192 4 0.498027 0.274205 0.346482
569 4 0.0333623 0.343478 0.222496
1228 4 0.0940896 0.464959 0.371665
751 4 0.366509 0.403316 0.261045
752 4 0.377898 0.47445 0.264487
750 2 0.372203 0.438883 0.262766
200 4 0.439335 0.233474 0.0860243
179 4 0.0744574 0.55807 0.279111
107 4 0.036851 0.553941 0.301887
105 2 0.0309616 0.551004 0.337343
177 2 0.0944396 0.560058 0.249157
445 4 0.248818 0.563304 0.224041
1259 4 0.0189756 0.639296 0.300717
1257 2 0.0520753 0.653408 0.303105
178 4 0.11442 0.562047 0.219204
270 2 0.128361 0.643856 0.261435
272 4 0.121747 0.650766 0.296215
827 4 0.107469 0.649383 0.334246
93 2 0.302325 0.615253 0.231588
94 4 0.330238 0.638083 0.231906
159 2 0.0689469 0.72803 0.286283
161 4 0.0868508 0.707813 0.310187
1258 4 0.0851744 0.667527 0.305489
830 4 0.146892 0.656813 0.32842
667 4 0.119749 0.685066 0.317776
666 2 0.142552 0.70989 0.304958
668 4 0.165362 0.734702 0.292135
42 3 0.026103 0.777098 0.267796
160 4 0.0510429 0.748246 0.262383
1179 2 0.126557 0.790192 0.309772
1181 4 0.148075 0.766542 0.293098
1180 4 0.105038 0.813842 0.326447
241 4 0.0822748 0.192036 0.478901
574 4 0.0841064 0.885149 0.229446
404 4 0.0783333 0.8633 0.260238
402 2 0.0551241 0.862046 0.28781
1448 4 0.151313 0.902587 0.238325
994 4 0.116063 0.91134 0.233357
993 2 0.126059 0.941852 0.249775
1488 2 0.265692 0.945878 0.334207
1490 4 0.235524 0.948472 0.353791
1386 2 0.448049 0.951275 0.277315
1388 4 0.460997 0.952012 0.243667
1387 4 0.435102 0.950537 0.310964
1303 4 0.37714 0.807296 0.472817
220 4 0.122808 0.00376307 0.481299
62 4 0.270382 0.0309321 0.454371
142 4 0.0842592 0.106105 0.412497
672 2 0.0518578 0.142725 0.335457
884 4 0.0967652 0.140725 0.429897
393 2 0.15175 0.131603 0.388864
395 4 0.125645 0.141641 0.411627
394 4 0.177856 0.121565 0.366101
1429 4 0.273714 0.068536 0.44447
584 4 0.382924 0.129781 0.420702
673 4 0.0876873 0.146064 0.333117
1366 4 0.0734307 0.223731 0.356943
1367 4 0.108702 0.286586 0.354325
1365 2 0.0910662 0.25516 0.355634
1349 4 0.129262 0.317174 0.350823
582 2 0.37716 0.141427 0.387064
691 4 0.413591 0.233241 0.353273
1347 2 0.16294 0.32959 0.354297
690 2 0.386192 0.254816 0.36245
692 4 0.358793 0.276391 0.371627
1191 2 0.480378 0.242796 0.344937
1193 4 0.462728 0.211388 0.34339
990 2 0.38282 0.398006 0.355004
868 4 0.497867 0.340194 0.430487
867 2 0.474302 0.349515 0.404831
869 4 0.450738 0.358834 0.379174
991 4 0.384756 0.385399 0.388735
1229 4 0.0754177 0.40344 0.33898
1227 2 0.0847542 0.4342 0.355322
992 4 0.380883 0.410612 0.321274
885 2 0.106036 0.555169 0.429814
887 4 0.0885271 0.570812 0.402443
236 4 0.271161 0.513844 0.367261
607 4 0.194462 0.546288 0.43553
234 2 0.258236 0.495468 0.339053
235 4 0.245311 0.477092 0.310845
550 4 0.319906 0.537264 0.381643
825 2 0.101441 0.619177 0.35301
826 4 0.0954245 0.588975 0.371773
828 2 0.174576 0.636208 0.338926
829 4 0.202247 0.615608 0.349431
135 2 0.432961 0.572458 0.406786
288 2 0.481915 0.631932 0.37364
137 4 0.467406 0.582443 0.41056
290 4 0.464043 0.617389 0.40138
92 4 0.0123019 0.733785 0.410517
679 4 0.0394714 0.719317 0.383156
678 2 0.0637261 0.701653 0.363152
680 4 0.0879732 0.683984 0.343159
116 4 0.126126 0.677247 0.357142
115 4 0.161346 0.711541 0.409929
114 2 0.143737 0.694398 0.383539
786 2 0.316861 0.775812 0.359013
787 4 0.301785 0.743286 0.362909
1325 4 0.371718 0.718699 0.371107
962 4 0.454392 0.763327 0.355496
1323 2 0.40037 0.731891 0.353631
1324 4 0.429022 0.745084 0.336154
960 2 0.47881 0.78861 0.363558
345 2 0.180708 0.775471 0.420157
346 4 0.17863 0.811471 0.419765
347 4 0.182786 0.739472 0.420548
788 4 0.331937 0.808338 0.355116
403 4 0.0319135 0.860792 0.315379
1489 4 0.29586 0.943285 0.314622
252 2 0.400134 0.880854 0.391415
253 4 0.41055 0.851086 0.373928
995 4 0.136054 0.972363 0.266194
128 4 0.358553 0.936127 0.406447
141 2 0.0777413 0.0712635 0.405862
143 4 0.0712243 0.0364224 0.399227
221 4 0.125735 0.0289198 0.413769
219 2 0.124271 0.0163426 0.447534
60 2 0.248398 0.00234918 0.454707
61 4 0.226413 0.973766 0.455042
206 4 0.40808 0.808735 0.485774
883 4 0.0485678 0.185862 0.458902
882 2 0.0726666 0.163294 0.444399
1428 2 0.291469 0.0999173 0.445089
1430 4 0.309224 0.131299 0.445706
919 4 0.301536 0.151143 0.474236
956 4 0.269019 0.861479 0.421175
1067 4 0.459195 0.612993 0.499823
205 4 0.466093 0.851105 0.479378
1011 2 0.220554 0.18683 0.471197
1013 4 0.205667 0.214393 0.489061
1012 4 0.235441 0.159268 0.453334
920 4 0.296941 0.222396 0.464062
918 2 0.299239 0.18677 0.469149
1360 4 0.287985 0.232887 0.498586
1209 2 0.49322 0.216665 0.480969
1499 4 0.318602 0.684098 0.475215
1359 2 0.287292 0.267102 0.487217
1361 4 0.286599 0.301318 0.475849
1150 4 0.282232 0.297211 0.44101
753 2 0.40108 0.289557 0.485397
754 4 0.369385 0.298233 0.470545
1033 4 0.209667 0.371486 0.454038
1032 2 0.231192 0.39415 0.472021
1151 4 0.229631 0.346526 0.439365
1149 2 0.255932 0.32187 0.440187
886 4 0.123545 0.539527 0.457185
606 2 0.224154 0.534427 0.452206
608 4 0.253846 0.522567 0.468883
136 4 0.398516 0.562473 0.403012
551 4 0.370717 0.55966 0.427666
549 2 0.345311 0.548462 0.404655
1498 4 0.368387 0.632451 0.467752
955 4 0.243785 0.835766 0.483656
654 2 0.0617474 0.829769 0.482578
1497 2 0.343495 0.658275 0.471483
1065 2 0.476614 0.640726 0.484729
1034 4 0.252718 0.416815 0.490005
1345 4 0.311635 0.129086 0.499348
319 4 0.0547462 0.0851394 0.573683
49 3 0.166635 0.996755 0.531042
46 1 0.151954 0.026827 0.530864
50 3 0.138471 0.0325408 0.501464
47 3 0.128228 0.0273169 0.554048
1022 4 0.168041 0.836394 0.532516
48 3 0.17446 0.0505697 0.537914
975 2 0.397516 0.107297 0.576463
976 4 0.427269 0.087796 0.57056
318 2 0.0267412 0.0867953 0.551025
1346 4 0.365528 0.135249 0.546879
977 4 0.367763 0.126798 0.582367
734 4 0.455213 0.106249 0.578492
732 2 0.474774 0.112287 0.548805
1424 4 0.274179 0.296573 0.99086
240 2 0.081978 0.215959 0.505883
242 4 0.0816812 0.239882 0.532863
1189 4 0.392129 0.190357 0.600527
1211 4 0.477106 0.211524 0.512817
1263 2 0.0986548 0.316728 0.565829
1015 4 0.216159 0.308135 0.585645
217 4 0.233419 0.276452 0.571868
216 2 0.267817 0.28398 0.564088
218 4 0.302215 0.291509 0.556308
755 4 0.432774 0.280879 0.500249
1264 4 0.094815 0.335002 0.53498
1172 4 0.314111 0.312428 0.527513
1170 2 0.306336 0.347606 0.525951
1171 4 0.29856 0.382784 0.52439
578 4 0.405435 0.350702 0.56885
223 4 0.417625 0.385964 0.557818
222 2 0.402042 0.418062 0.563043
1309 4 0.00158463 0.328648 0.604074
1466 4 0.247793 0.445001 0.512599
1357 4 0.482627 0.234694 0.937623
472 4 0.37658 0.527497 0.567804
471 2 0.398614 0.498953 0.567417
473 4 0.420647 0.470408 0.567029
1020 2 0.183081 0.81329 0.555763
1344 2 0.338582 0.132167 0.523113
1233 2 0.158408 0.574082 0.566105
1234 4 0.127384 0.562921 0.580712
1235 4 0.189432 0.585244 0.551497
553 4 0.233313 0.58122 0.548772
7 3 0.112306 0.0130409 0.996063
509 4 0.302351 0.541389 0.616187
508 4 0.370394 0.550532 0.594093
507 2 0.336373 0.54596 0.605141
1248 2 0.0217492 0.591393 0.530788
1250 4 0.0547745 0.581713 0.520016
958 4 0.0842037 0.605474 0.517174
957 2 0.109662 0.626947 0.531003
959 4 0.13512 0.648419 0.544831
552 2 0.258351 0.592922 0.571937
554 4 0.283388 0.604624 0.595101
1177 4 0.195323 0.723071 0.563516
1176 2 0.223029 0.741466 0.577459
1481 4 0.27341 0.727066 0.52713
880 4 0.391551 0.697177 0.588218
881 4 0.362637 0.735097 0.534109
879 2 0.377094 0.716137 0.561164
1048 4 0.492417 0.713492 0.581086
214 4 0.46285 0.698321 0.580062
1304 4 0.357643 0.774609 0.534079
1302 2 0.367392 0.790953 0.503448
1415 4 0.222451 0.882163 0.589313
733 4 0.494335 0.118326 0.519118
1390 4 0.00915605 0.934394 0.529765
157 4 0.113495 0.921642 0.505197
156 2 0.0944819 0.952091 0.501756
710 4 0.493449 0.46073 0.853462
1414 4 0.273008 0.888844 0.538314
1413 2 0.24773 0.885505 0.563814
922 4 0.19169 0.99737 0.556857
1046 4 0.306088 0.916598 0.547247
1026 2 0.0628477 0.0117304 0.601274
1028 4 0.0776689 0.993242 0.574091
1027 4 0.048026 0.0302185 0.628457
166 4 0.0729813 0.0773217 0.681265
165 2 0.0924387 0.0890221 0.653249
531 2 0.299012 0.0646613 0.622445
533 4 0.317887 0.0702156 0.592224
469 4 0.0565683 0.127421 0.661551
520 4 0.0933041 0.246558 0.652986
519 2 0.0806158 0.27359 0.632769
1190 4 0.364139 0.178821 0.665987
1188 2 0.378134 0.184589 0.633258
1308 2 0.00166674 0.29271 0.601111
1310 4 0.00174946 0.25677 0.598147
521 4 0.0679283 0.300621 0.612553
1265 4 0.102494 0.298454 0.596679
1014 2 0.219661 0.336954 0.607037
576 2 0.431691 0.326629 0.574468
577 4 0.457947 0.302556 0.580085
773 4 0.484865 0.287797 0.651086
435 2 0.0952878 0.408807 0.618618
436 4 0.0738879 0.401545 0.590516
1016 4 0.223161 0.365773 0.628429
474 2 0.320737 0.336982 0.677506
476 4 0.311284 0.35338 0.646811
944 4 0.288939 0.371579 0.626672
942 2 0.319759 0.380522 0.610224
437 4 0.116687 0.416069 0.646721
580 4 0.0297279 0.460136 0.647875
749 4 0.0284453 0.422639 0.642964
224 4 0.386459 0.45016 0.568266
1216 4 0.441245 0.517675 0.661817
649 4 0.330305 0.441745 0.684408
943 4 0.350579 0.389466 0.593775
1215 2 0.446852 0.48433 0.674349
1217 4 0.452459 0.450984 0.686881
97 4 0.451795 0.424107 0.712988
239 4 0.490773 0.576341 0.639759
14 3 0.359614 0.599621 0.590532
15 3 0.393221 0.637546 0.610055
215 4 0.415874 0.643597 0.580419
13 3 0.359798 0.611526 0.644036
12 3 0.340288 0.647119 0.608107
11 1 0.363485 0.62395 0.613183
213 2 0.439363 0.670959 0.580241
1237 4 0.0444161 0.644598 0.668189
362 4 0.226406 0.781928 0.605676
693 2 0.0672846 0.810228 0.587364
695 4 0.0757399 0.802133 0.553255
144 2 0.153009 0.939857 0.997901
793 4 0.0115686 0.883878 0.655656
694 4 0.058829 0.818323 0.621472
480 2 0.131774 0.814128 0.664065
1178 4 0.250734 0.759862 0.591402
481 4 0.164745 0.80517 0.652527
361 4 0.197008 0.818432 0.660492
360 2 0.211707 0.80018 0.633085
1480 4 0.314269 0.777064 0.559264
1479 2 0.293839 0.752065 0.543197
121 4 0.0419894 0.904663 0.645575
397 4 0.0396998 0.89011 0.611005
396 2 0.0192122 0.90374 0.584645
120 2 0.0627295 0.902134 0.674967
482 4 0.098804 0.823085 0.675603
440 4 0.269768 0.896363 0.645507
439 4 0.317669 0.862193 0.687215
438 2 0.293719 0.879277 0.666361
1167 2 0.404997 0.888026 0.642733
1169 4 0.37838 0.899504 0.621282
659 4 0.00547785 0.025053 0.636899
923 4 0.183687 0.983343 0.627148
921 2 0.187689 0.990356 0.592003
978 2 0.408564 0.978123 0.670219
979 4 0.409569 0.999463 0.641167
706 4 0.00157637 0.0977636 0.739944
707 4 0.0536863 0.0661352 0.778491
705 2 0.0276313 0.0819498 0.759217
434 4 0.132895 0.111768 0.738512
167 4 0.111895 0.100724 0.625231
532 4 0.280137 0.0591074 0.652667
300 2 0.309342 0.0363869 0.705647
302 4 0.274094 0.0395846 0.712562
301 4 0.344589 0.0331906 0.698732
468 2 0.0307762 0.124133 0.686538
470 4 0.00498382 0.120845 0.711526
1352 4 0.123632 0.145843 0.775075
53 4 0.26507 0.145161 0.693134
51 2 0.267961 0.109249 0.691585
52 4 0.270851 0.0733365 0.690035
386 4 0.230066 0.227897 0.700285
384 2 0.254548 0.202573 0.692559
385 4 0.279031 0.177248 0.684833
1478 4 0.480751 0.232941 0.748546
475 4 0.330191 0.320584 0.7082
1394 4 0.44964 0.244558 0.762645
1021 4 0.198121 0.790187 0.579011
96 2 0.478869 0.410034 0.693769
579 2 0.0344625 0.487401 0.670997
154 4 0.275584 0.467825 0.741933
648 2 0.32013 0.462431 0.712139
650 4 0.309954 0.483116 0.739869
581 4 0.0391966 0.514666 0.69412
1039 4 0.485003 0.608661 0.656862
1038 2 0.474011 0.623068 0.688039
720 2 0.0507594 0.627433 0.764891
721 4 0.0675988 0.64658 0.790392
1327 4 0.333107 0.607319 0.725258
1328 4 0.307842 0.562447 0.674763
1326 2 0.320474 0.584883 0.70001
1040 4 0.463018 0.637476 0.719216
1238 4 0.0714728 0.710019 0.65442
1236 2 0.0579443 0.677309 0.661304
1332 2 0.126983 0.67667 0.765464
123 2 0.197447 0.733054 0.720607
1333 4 0.159136 0.686825 0.752678
124 4 0.183845 0.711908 0.746459
342 2 0.330676 0.739093 0.707185
343 4 0.330383 0.708276 0.725911
125 4 0.211047 0.754199 0.694755
344 4 0.330971 0.769909 0.68846
269 4 0.368795 0.774787 0.67875
267 2 0.35508 0.808008 0.675815
1416 2 0.0245536 0.888547 0.755447
268 4 0.341364 0.841229 0.672878
1168 4 0.431615 0.876546 0.664184
256 4 0.457046 0.851369 0.6834
255 2 0.439585 0.85105 0.714951
122 4 0.0834693 0.899604 0.704359
1418 4 0.00514859 0.914782 0.740098
657 2 0.00531406 0.991048 0.648903
980 4 0.40756 0.956783 0.699271
432 2 0.154704 0.0841132 0.746254
896 4 0.197673 0.0383851 0.780959
894 2 0.221079 0.0654713 0.78531
895 4 0.244483 0.092558 0.789661
1351 4 0.0650118 0.136952 0.734009
1350 2 0.0943216 0.141397 0.754542
433 4 0.176513 0.0564574 0.753997
183 2 0.300896 0.159773 0.760948
185 4 0.320004 0.129647 0.766209
184 4 0.281788 0.1899 0.755687
337 4 0.410075 0.100556 0.78525
338 4 0.464871 0.0940941 0.831696
336 2 0.437473 0.0973246 0.808473
1202 4 0.480812 0.106902 0.777427
530 4 0.144694 0.164206 0.797731
528 2 0.162301 0.189737 0.779329
529 4 0.179907 0.215267 0.760928
1393 4 0.490852 0.302474 0.774849
1392 2 0.470246 0.273516 0.768747
355 4 0.033592 0.354109 0.842159
1256 4 0.305884 0.400242 0.853092
59 4 0.115253 0.442842 0.820011
153 2 0.245866 0.449448 0.733012
155 4 0.216149 0.431071 0.724092
329 4 0.394976 0.433461 0.816714
328 4 0.438104 0.429177 0.759067
327 2 0.41654 0.431319 0.787891
1045 4 0.351176 0.958883 0.510088
484 4 0.394814 0.450356 0.849887
483 2 0.368534 0.473612 0.858192
722 4 0.033921 0.608286 0.739391
1334 4 0.0948302 0.666514 0.77825
458 4 0.304645 0.60237 0.825716
741 2 0.0690846 0.746344 0.820879
742 4 0.0480502 0.717926 0.827979
743 4 0.090118 0.774761 0.813778
1187 4 0.157574 0.807285 0.87106
1186 4 0.107181 0.800465 0.819918
1185 2 0.132377 0.803874 0.845489
292 4 0.455666 0.852482 0.839715
684 2 0.0626287 0.865412 0.820068
685 4 0.0556297 0.839391 0.796102
1417 4 0.0439593 0.862313 0.770798
381 2 0.179191 0.904142 0.79297
644 4 0.408755 0.884709 0.754143
257 4 0.422125 0.850732 0.746502
293 4 0.436662 0.827613 0.774737
291 2 0.446164 0.840047 0.807226
382 4 0.210708 0.905421 0.775496
304 4 0.252367 0.91132 0.85691
303 2 0.262731 0.924183 0.824855
305 4 0.273095 0.937047 0.7928
642 2 0.397311 0.91506 0.7699
510 2 0.257889 0.0210191 0.890393
512 4 0.242442 0.0265085 0.922514
511 4 0.273335 0.0155295 0.858274
1420 4 0.500151 0.0853014 0.833734
929 4 0.435723 0.606103 0.526244
100 4 0.465544 0.973682 0.875253
1069 4 0.138668 0.266516 0.885415
813 2 0.155221 0.134255 0.887636
814 4 0.180866 0.142563 0.863683
815 4 0.129575 0.125948 0.911588
1112 4 0.275207 0.968077 0.966527
950 4 0.0186306 0.315786 0.861876
948 2 0.0232961 0.288261 0.884702
949 4 0.027961 0.260737 0.907528
1068 2 0.118068 0.29262 0.871463
1070 4 0.0974686 0.318724 0.857511
1082 4 0.347952 0.263001 0.932134
1080 2 0.343352 0.244209 0.901702
1081 4 0.338752 0.225417 0.87127
356 4 0.10334 0.343896 0.826911
354 2 0.0684664 0.349003 0.834534
937 4 0.285798 0.413083 0.826619
1254 2 0.32889 0.409875 0.827047
1255 4 0.351896 0.419507 0.801003
1089 2 0.446644 0.304652 0.969459
498 2 0.000550939 0.477241 0.828384
58 4 0.0580336 0.482503 0.801181
57 2 0.0866427 0.462672 0.810597
938 4 0.233073 0.4481 0.861193
285 2 0.196321 0.476463 0.892702
286 4 0.215537 0.446047 0.89021
936 2 0.259435 0.430592 0.843906
708 2 0.458036 0.463605 0.847291
709 4 0.422624 0.466481 0.84112
499 4 0.0276376 0.494815 0.812324
940 4 0.0906695 0.529946 0.924569
485 4 0.342254 0.496865 0.866499
456 2 0.316311 0.597829 0.859535
457 4 0.327976 0.593288 0.893353
1510 4 0.409824 0.79524 0.895568
598 4 0.135177 0.789336 0.902242
86 4 0.490734 0.865891 0.847058
686 4 0.0696275 0.891432 0.844034
797 4 0.0511513 0.848996 0.933226
795 2 0.0536628 0.871156 0.904886
796 4 0.0561751 0.893315 0.876548
383 4 0.147672 0.902862 0.810445
712 4 0.366149 0.911565 0.884909
1018 4 0.171817 0.948918 0.89038
1017 2 0.155528 0.951494 0.922449
713 4 0.377619 0.926745 0.815342
643 4 0.385868 0.945411 0.785658
711 2 0.371884 0.919155 0.850126
9 3 0.127621 0.988676 0.950126
10 3 0.139965 0.0407796 0.959149
414 2 0.211259 0.0740907 0.927186
415 4 0.242943 0.0618121 0.915111
6 1 0.13628 0.0113195 0.973195
99 2 0.481417 0.966467 0.906818
101 4 0.497292 0.959251 0.938384
1174 4 0.110539 0.106368 0.977747
1173 2 0.134033 0.0843286 0.961539
1175 4 0.157527 0.0622887 0.945331
416 4 0.179577 0.08637 0.939261
665 4 0.0253726 0.150767 0.899113
132 2 0.0907211 0.22918 0.92533
133 4 0.0886913 0.264833 0.920316
927 2 0.407484 0.624501 0.513419
134 4 0.0927502 0.193527 0.930344
730 4 0.265178 0.17568 0.932406
729 2 0.282131 0.17229 0.964053
1111 4 0.236929 0.0291058 0.963081
1422 2 0.294472 0.281383 0.96521
1423 4 0.314766 0.266194 0.93956
1053 2 0.401682 0.0504297 0.992889
1091 4 0.480343 0.302527 0.9568
1437 2 0.999009 0.358104 0.939026
1438 4 0.00950241 0.326141 0.926038
171 2 0.267633 0.399616 0.944105
172 4 0.248208 0.369291 0.942232
173 4 0.287058 0.429941 0.945979
1224 2 0.469657 0.399584 0.938991
287 4 0.177106 0.506876 0.895193
1225 4 0.43921 0.417881 0.932774
1232 4 0.049743 0.609988 0.948767
1230 2 0.0542879 0.576945 0.935058
1201 4 0.492843 0.126237 0.708994
941 4 0.118956 0.484222 0.972639
1231 4 0.0588326 0.543902 0.92135
939 2 0.104812 0.507084 0.948604
103 4 0.20185 0.528669 0.904921
104 4 0.226044 0.576296 0.953376
102 2 0.213947 0.552482 0.929148
778 4 0.418885 0.528418 0.978739
777 2 0.430791 0.560617 0.967701
779 4 0.442697 0.592817 0.956662
455 4 0.214479 0.596504 0.980234
453 2 0.228372 0.62381 0.961214
1084 4 0.271314 0.671465 0.949849
454 4 0.242265 0.651116 0.942193
1083 2 0.305094 0.673144 0.962359
1085 4 0.338874 0.674824 0.974869
378 2 0.415515 0.726173 0.97149
380 4 0.403937 0.760324 0.971594
379 4 0.427092 0.692021 0.971387
1371 2 0.0484724 0.7917 0.973427
1372 4 0.0383904 0.76004 0.987438
1373 4 0.0585547 0.82336 0.959416
597 2 0.104709 0.801658 0.917086
599 4 0.0742437 0.81398 0.931927
1509 2 0.415502 0.791115 0.93094
1511 4 0.42118 0.786991 0.966312
652 4 0.45539 0.795415 0.982222
1110 2 0.256069 0.998591 0.964805
1200 2 0.486827 0.116569 0.74321
232 4 0.0449566 0.846787 0.979153
967 4 0.490575 0.530816 0.913231
572 4 0.248022 0.849149 0.963651
570 2 0.221916 0.871056 0.97544
1459 4 0.488753 0.841367 0.957027
1458 2 0.488307 0.872486 0.975241
8 3 0.1648 0.00212259 0.988092
146 4 0.140945 0.971925 0.986652
1019 4 0.13924 0.954069 0.95452
1476 2 0.478947 0.197132 0.7524
1055 4 0.418355 0.0184892 0.994362
1054 4 0.385009 0.0823715 0.991416
1297 4 0.224479 0.230197 0.973377
601 4 0.265023 0.449221 0.972065
365 4 0.0318791 0.707071 0.969487
1044 2 0.328632 0.937741 0.528668
663 2 0.012978 0.179232 0.917459
237 2 0.488732 0.555231 0.610594
1463 4 0.335223 0.16734 0.9915
1461 2 0.356946 0.196031 0.993795
1462 4 0.37867 0.224723 0.996088
238 4 0.486691 0.534121 0.581429
1241 4 0.491537 0.760838 0.617248
658 4 0.00515058 0.957044 0.660906
1477 4 0.477144 0.161322 0.756255
65 4 0.0179024 0.126084 0.517513
1090 4 0.412944 0.306778 0.982117
1148 4 0.405003 0.676185 0.999222
571 4 0.195809 0.892963 0.987229
1460 4 0.487861 0.903606 0.993455
731 4 0.299082 0.1689 0.995699
600 2 0.285019 0.466592 0.996536
1101 2 0.533975 0.0376262 0.0874495
1102 4 0.537851 0.0309614 0.122676
1103 4 0.530099 0.0442906 0.0522217
834 2 0.918869 0.0569008 0.0216673
835 4 0.948312 0.0774592 0.0183934
836 4 0.889424 0.0363408 0.0249408
140 4 0.519414 0.152118 0.0288603
138 2 0.55387 0.162749 0.0283753
1343 4 0.958646 0.138085 0.0157262
767 4 0.607849 0.943282 0.0599603
1338 2 0.624747 0.20814 0.0241241
139 4 0.588324 0.17338 0.0278896
1339 4 0.588883 0.209534 0.0206216
1340 4 0.660612 0.206747 0.0276275
33 3 0.702323 0.192029 0.032396
682 4 0.805573 0.162723 0.0193441
681 2 0.770793 0.171659 0.0226525
683 4 0.736013 0.180594 0.0259606
1210 4 0.509334 0.221807 0.449121
808 4 0.773111 0.307389 0.0979366
700 4 0.682347 0.288562 0.0743467
699 2 0.668148 0.255794 0.0693479
524 4 0.639618 0.308767 0.0391692
522 2 0.624844 0.341553 0.0418658
1384 4 0.898981 0.406389 0.0596898
1383 2 0.879947 0.37639 0.0658692
1385 4 0.860913 0.346391 0.0720485
791 4 0.986677 0.412036 0.0633938
1502 4 0.524337 0.523614 0.0589958
790 4 0.985482 0.46355 0.113858
999 2 0.648127 0.497364 0.00436251
1222 4 0.9597 0.0569733 0.371043
1001 4 0.661837 0.51349 0.0335573
1469 4 0.897353 0.483277 0.0755678
1467 2 0.930398 0.4953 0.0675801
1321 4 0.52565 0.77213 0.0107359
1266 2 0.809609 0.533536 0.014172
1268 4 0.817129 0.512108 0.0421844
430 4 0.987254 0.524275 0.0879362
1468 4 0.963445 0.507323 0.0595928
563 4 0.984944 0.828602 0.288085
1132 4 0.995452 0.124229 0.309183
199 4 0.507694 0.235935 0.0631608
1133 4 0.957721 0.0673443 0.33247
759 2 0.725786 0.64618 0.0288554
1403 4 0.762264 0.604572 0.0579115
761 4 0.740354 0.631232 0.0582621
452 4 0.914404 0.591444 0.0135541
450 2 0.939003 0.604994 0.0361751
451 4 0.963602 0.618544 0.0587954
1406 4 0.612241 0.747439 0.0208949
1037 4 0.632033 0.716257 0.0233178
961 4 0.503229 0.813892 0.371619
64 4 0.973587 0.110703 0.46273
1035 2 0.665433 0.702747 0.0218004
28 3 0.697953 0.726557 0.0975433
1335 2 0.969028 0.702852 0.0482732
1404 2 0.623385 0.764253 0.0507862
1405 4 0.634529 0.781069 0.0806778
151 4 0.657982 0.810633 0.0846737
1295 4 0.856943 0.804754 0.0105409
988 4 0.907173 0.81007 0.0936284
1336 4 0.948093 0.721474 0.0255708
280 4 0.584892 0.974551 0.00815664
279 2 0.567687 0.994203 0.033021
281 4 0.550483 0.0138549 0.0578858
925 4 0.875552 0.0033255 0.021577
671 4 0.561148 0.040831 0.145486
669 2 0.565145 0.0398463 0.181311
670 4 0.569143 0.038862 0.217137
863 4 0.740496 0.0671891 0.0922851
861 2 0.753203 0.0746778 0.125193
862 4 0.765909 0.0821665 0.1581
341 4 0.875867 0.195484 0.0965824
339 2 0.868085 0.160565 0.101117
340 4 0.860302 0.125647 0.105652
878 4 0.958284 0.192567 0.178019
723 2 0.589132 0.239037 0.144161
724 4 0.582514 0.209005 0.162994
725 4 0.595749 0.26907 0.125328
315 2 0.804143 0.247269 0.152631
317 4 0.7753 0.256802 0.172062
316 4 0.832987 0.237735 0.133201
877 4 0.969132 0.17644 0.108565
876 2 0.963707 0.184504 0.143293
609 2 0.655623 0.295976 0.165377
610 4 0.629867 0.273281 0.176426
611 4 0.681378 0.31867 0.15433
809 4 0.710751 0.317816 0.132639
807 2 0.741932 0.312603 0.115287
424 4 0.557207 0.308438 0.155827
523 4 0.610072 0.374339 0.044562
423 2 0.56002 0.342205 0.168166
735 2 0.765094 0.386447 0.141768
55 4 0.699697 0.385884 0.121378
736 4 0.731614 0.377063 0.13221
737 4 0.798575 0.395831 0.151327
527 4 0.499409 0.389178 0.10565
525 2 0.503001 0.404722 0.137991
299 4 0.906828 0.466436 0.109302
297 2 0.907285 0.439628 0.133416
298 4 0.907742 0.412818 0.15753
526 4 0.506593 0.420267 0.170331
701 4 0.653949 0.223025 0.0643472
1483 4 0.512602 0.547762 0.137496
72 2 0.699226 0.584523 0.154263
74 4 0.665311 0.575082 0.162078
67 4 0.807668 0.550002 0.187081
429 2 0.981227 0.555842 0.104298
431 4 0.975199 0.587408 0.120657
73 4 0.733141 0.593966 0.146448
1472 4 0.6117 0.66454 0.173138
392 4 0.806198 0.623334 0.150976
1401 2 0.767905 0.609605 0.0931711
1402 4 0.773546 0.614636 0.12843
560 4 0.771845 0.644408 0.156011
547 4 0.828719 0.684652 0.0116181