ITEM: TIMESTEP
1322000
ITEM: NUMBER OF ATOMS
1520
ITEM: BOX BOUNDS pp pp pp
-6.9326749999999997e+00 6.9326749999999997e+00
-6.9326749999999997e+00 6.9326749999999997e+00
-6.9326749999999997e+00 6.9326749999999997e+00
ITEM: ATOMS id type xs ys zs
1443 2 0.0158366 0.0188751 0.0729586
1444 4 0.0124381 0.0537114 0.0642809
1327 4 0.13169 0.0109057 0.151817
703 4 0.282508 0.0135002 0.0114183
1384 4 0.115314 0.0932602 0.0681534
574 4 0.286882 0.125618 0.0570716
573 2 0.283179 0.0912173 0.0672338
122 4 0.279032 0.140134 0.0263763
120 2 0.265579 0.168313 0.00833854
709 4 0.489011 0.139568 0.2018
685 4 0.0165688 0.236267 0.00875685
10 3 0.391875 0.910887 0.461637
1332 2 0.175583 0.211761 0.0251654
1334 4 0.197783 0.211484 0.0535818
1269 2 0.236988 0.24208 0.0745781
1270 4 0.221154 0.245299 0.0423391
1271 4 0.252821 0.23886 0.106817
1199 4 0.470326 0.264278 0.0117276
141 2 0.0114195 0.334056 0.0544345
142 4 0.00838287 0.326152 0.0894882
215 4 0.209517 0.330493 0.0625992
143 4 0.0144552 0.341958 0.0193817
715 4 0.0641725 0.38505 0.0922774
714 2 0.0987524 0.378169 0.0847063
716 4 0.133332 0.371287 0.0771363
213 2 0.241419 0.338962 0.0480739
214 4 0.27332 0.347433 0.0335483
885 2 0.186453 0.47323 0.00176788
887 4 0.216633 0.487625 0.0152712
645 2 0.325174 0.454565 0.0228714
83 4 0.357792 0.444602 0.0692209
81 2 0.384919 0.420855 0.0684348
82 4 0.412046 0.397108 0.0676489
643 4 0.0986516 0.534357 0.0559029
642 2 0.0896518 0.568246 0.0643281
1205 4 0.204232 0.520641 0.0212548
119 4 0.350546 0.495653 0.0649871
646 4 0.335413 0.467209 0.0550535
644 4 0.0806521 0.602135 0.0727541
1471 4 0.0759773 0.643888 0.0488992
1472 4 0.145206 0.647316 0.0289681
1470 2 0.110592 0.645602 0.0389339
1343 4 0.162376 0.619075 0.0447326
1341 2 0.183102 0.635777 0.069062
778 4 0.437247 0.634928 0.139405
779 4 0.491829 0.587935 0.143176
700 4 0.198344 0.682777 0.109912
699 2 0.222394 0.702857 0.092059
1355 4 0.278525 0.730731 0.0930818
1180 4 0.439131 0.780415 0.095122
1179 2 0.450014 0.782037 0.0607806
701 4 0.246446 0.722937 0.0742063
1319 4 0.274137 0.825781 0.0363893
471 2 0.392931 0.818783 0.104896
473 4 0.420957 0.8193 0.0822095
1051 4 0.046045 0.910609 0.0891174
472 4 0.364904 0.818267 0.127583
1445 4 0.0192347 0.984039 0.0816364
1385 4 0.0692219 0.072576 0.119625
1326 2 0.154004 0.0328525 0.133905
1328 4 0.176318 0.0547998 0.115993
575 4 0.279477 0.0568163 0.0773968
1207 4 0.26408 0.0465436 0.173638
553 4 0.415205 0.0564005 0.134915
1466 4 0.482513 0.0072675 0.110958
364 4 0.44003 0.0557093 0.159585
491 4 0.0274747 0.154454 0.180031
1383 2 0.0922682 0.0829178 0.0938892
552 2 0.408526 0.0899705 0.123565
554 4 0.401846 0.123541 0.112214
603 2 0.0484314 0.189265 0.133917
605 4 0.0715274 0.180594 0.16022
604 4 0.0253356 0.197937 0.107615
925 4 0.0871389 0.263889 0.218434
410 4 0.247583 0.223601 0.138644
408 2 0.225928 0.202325 0.158108
409 4 0.204275 0.181048 0.177572
1392 2 0.407615 0.350668 0.100418
1393 4 0.380937 0.36559 0.119551
1394 4 0.434292 0.335748 0.081286
407 4 0.0162919 0.345428 0.160332
968 4 0.0441845 0.361353 0.180593
79 4 0.457678 0.39008 0.173646
1184 4 0.141149 0.518546 0.0337093
1182 2 0.134713 0.492997 0.0583322
1183 4 0.128276 0.467449 0.0829543
1209 2 0.210174 0.509026 0.152439
1210 4 0.200565 0.541329 0.139612
1211 4 0.219785 0.476722 0.165266
117 2 0.340147 0.506117 0.097892
118 4 0.329749 0.516582 0.130797
1375 4 0.324828 0.492859 0.155414
366 2 0.476103 0.51329 0.1404
368 4 0.473778 0.486392 0.164306
1366 4 0.100381 0.659432 0.130496
1342 4 0.203827 0.652479 0.0933905
99 2 0.252923 0.639788 0.161854
101 4 0.28169 0.656565 0.14802
777 2 0.464538 0.611431 0.141291
199 4 0.247874 0.985591 0.420262
1365 2 0.120383 0.686618 0.117796
1367 4 0.140385 0.713803 0.105097
383 4 0.43049 0.728417 0.107043
1181 4 0.460897 0.783659 0.0264397
1023 2 0.0297091 0.789637 0.197145
59 4 0.138824 0.745718 0.123646
57 2 0.157667 0.761483 0.150044
58 4 0.176508 0.777247 0.176443
1353 2 0.276242 0.762074 0.0753986
1354 4 0.273961 0.79342 0.0577143
766 4 0.305236 0.811232 0.169522
765 2 0.320705 0.827265 0.141166
767 4 0.336174 0.843296 0.112809
381 2 0.400082 0.716445 0.122288
382 4 0.369674 0.704472 0.137532
1050 2 0.0780146 0.915175 0.105164
1052 4 0.109984 0.91974 0.121211
1325 4 0.246912 0.832393 0.167467
1136 4 0.259601 0.804871 0.190393
1171 4 0.362281 0.955021 0.10593
316 4 0.002289 0.963654 0.102309
1363 4 0.141788 0.923215 0.138667
1362 2 0.121663 0.9443 0.1599
265 4 0.323835 0.968938 0.163626
266 4 0.293091 0.0314193 0.182404
264 2 0.308463 0.000178333 0.173013
1170 2 0.387805 0.940937 0.127156
1172 4 0.41333 0.926852 0.148382
25 3 0.0572851 0.0130563 0.195041
21 1 0.0712704 0.990881 0.214828
1330 4 0.0384922 0.0376999 0.219443
23 3 0.104106 0.98913 0.208611
22 3 0.0668062 5.20673e-05 0.246398
487 4 0.20731 0.995019 0.215947
1208 4 0.202062 0.0370288 0.209205
1206 2 0.233071 0.0417868 0.191422
363 2 0.468049 0.0442148 0.179161
367 4 0.478429 0.540188 0.116494
365 4 0.496068 0.0327203 0.198737
62 4 0.402195 0.988963 0.221801
1203 2 0.210108 0.552205 0.00483569
671 4 0.055947 0.138119 0.165884
1154 4 0.0383262 0.692797 0.419077
670 4 0.121728 0.124929 0.192353
669 2 0.0888369 0.131523 0.179119
1288 4 0.196936 0.112672 0.244078
926 4 0.0966362 0.208608 0.173096
924 2 0.091888 0.236249 0.195765
1287 2 0.210404 0.132062 0.216819
1289 4 0.223873 0.151452 0.18956
878 4 0.354938 0.242297 0.254129
854 4 0.369557 0.194511 0.169682
145 4 0.120642 0.274569 0.224631
144 2 0.133925 0.280917 0.257549
1415 4 0.223939 0.346536 0.211192
853 4 0.363092 0.247977 0.217653
852 2 0.366324 0.221245 0.193667
358 4 0.457782 0.305562 0.210516
357 2 0.485903 0.283391 0.206266
966 2 0.0405866 0.393351 0.19683
967 4 0.036989 0.425348 0.213066
1414 4 0.267263 0.339908 0.153915
1413 2 0.2456 0.343221 0.182553
78 2 0.465256 0.363726 0.197065
80 4 0.472833 0.337371 0.220484
674 4 0.0552903 0.422452 0.245854
672 2 0.0543249 0.458491 0.245037
673 4 0.0533593 0.49453 0.24422
629 4 0.0749785 0.499792 0.216419
302 4 0.1759 0.439037 0.220327
300 2 0.168646 0.464002 0.245317
1374 2 0.317794 0.484482 0.189776
1376 4 0.310761 0.476104 0.224138
627 2 0.104231 0.516186 0.229684
628 4 0.133483 0.53258 0.242949
577 4 0.438273 0.51911 0.243649
576 2 0.464957 0.506611 0.22286
836 4 0.427238 0.617367 0.227614
834 2 0.460262 0.605226 0.219717
100 4 0.224156 0.623011 0.175688
140 4 0.317654 0.755058 0.212414
48 3 0.320145 0.73897 0.251954
1024 4 0.0296763 0.816527 0.221173
1324 4 0.180286 0.806397 0.158143
1323 2 0.213599 0.819395 0.162805
47 3 0.278675 0.765583 0.229365
46 1 0.287336 0.745213 0.254078
138 2 0.34609 0.773047 0.199442
139 4 0.374524 0.791037 0.186471
341 4 0.372657 0.821921 0.165361
339 2 0.404202 0.825767 0.182407
833 4 0.120351 0.564061 0.012334
1474 4 0.475712 0.806103 0.221678
376 4 0.0482928 0.882073 0.219342
1134 2 0.268878 0.832458 0.211685
1135 4 0.278154 0.860045 0.232976
352 4 0.264654 0.894575 0.244124
340 4 0.435747 0.829612 0.199452
991 4 0.421078 0.857529 0.210457
375 2 0.0666074 0.911558 0.209563
1364 4 0.101538 0.965385 0.181132
377 4 0.0849213 0.941042 0.199783
24 3 0.0571447 0.960903 0.21017
61 4 0.432649 0.951979 0.167889
60 2 0.417422 0.970471 0.194846
931 4 0.415528 0.918566 0.270638
447 2 0.0725428 0.013161 0.307831
486 2 0.209948 0.986824 0.250966
1065 2 0.477144 0.0550203 0.335029
1067 4 0.44916 0.0329476 0.340509
657 2 0.034754 0.134931 0.329214
658 4 0.059326 0.115331 0.311539
125 4 0.25537 0.167638 0.292837
123 2 0.256275 0.158089 0.3276
124 4 0.25718 0.14854 0.362363
1018 4 0.345983 0.0974224 0.28539
1017 2 0.327887 0.118137 0.308711
424 4 0.485566 0.155779 0.306364
911 4 0.140221 0.195481 0.335758
332 4 0.2689 0.256717 0.314948
330 2 0.253165 0.228748 0.298499
331 4 0.23743 0.20078 0.282051
877 4 0.291306 0.258737 0.283833
876 2 0.323122 0.250517 0.268981
4 3 0.47895 0.205073 0.328085
2 3 0.449003 0.16043 0.335052
5 3 0.425026 0.206798 0.32192
1 1 0.449595 0.193355 0.339081
146 4 0.14721 0.287265 0.290468
238 4 0.13991 0.287926 0.322885
237 2 0.1639 0.264979 0.336969
239 4 0.187889 0.242033 0.351054
301 4 0.161391 0.488968 0.270308
826 4 0.158462 0.462987 0.295986
825 2 0.142171 0.488957 0.314975
1037 4 0.336526 0.466787 0.335336
1035 2 0.33513 0.47215 0.299703
1036 4 0.333734 0.477514 0.264071
270 2 0.0643811 0.523044 0.314448
271 4 0.0401947 0.516292 0.288567
830 4 0.11584 0.550852 0.317821
828 2 0.118364 0.574528 0.290724
829 4 0.12089 0.598196 0.263636
115 4 0.22374 0.559515 0.331118
749 4 0.225699 0.583054 0.30315
747 2 0.246931 0.598422 0.278381
748 4 0.268162 0.613791 0.253615
866 4 0.296425 0.62925 0.239719
864 2 0.315296 0.645695 0.265678
50 3 0.270402 0.717193 0.25144
619 4 0.17024 0.726366 0.36726
197 4 0.344511 0.693921 0.302108
865 4 0.334166 0.66214 0.291637
153 2 0.479443 0.996449 0.243551
937 4 0.507603 0.723632 0.279342
693 2 0.450332 0.75323 0.304794
695 4 0.485313 0.744642 0.303074
1382 4 0.0618465 0.817937 0.31394
942 2 0.109813 0.766692 0.284042
943 4 0.0745477 0.761287 0.289289
944 4 0.145079 0.772098 0.278796
758 4 0.168201 0.802449 0.297135
756 2 0.176633 0.779817 0.323913
49 3 0.280394 0.760045 0.283262
694 4 0.415351 0.761818 0.306513
1381 4 0.0846079 0.884575 0.298356
1380 2 0.0732272 0.851255 0.306148
990 2 0.427361 0.872563 0.242626
992 4 0.433643 0.887599 0.274796
449 4 0.0557054 0.0211591 0.276961
507 2 0.154617 0.969948 0.318477
488 4 0.212587 0.978631 0.285985
509 4 0.18545 0.96174 0.301674
351 2 0.288813 0.921288 0.245907
353 4 0.312972 0.948001 0.24769
811 4 0.324167 0.945255 0.28358
932 4 0.43768 0.979438 0.302346
930 2 0.426604 0.949002 0.286493
193 4 0.300698 0.362206 0.0161136
448 4 0.0893803 0.00516222 0.338701
1454 4 0.0967485 0.00859601 0.391762
1452 2 0.126711 0.027506 0.385046
1453 4 0.156673 0.0464169 0.378331
200 4 0.306368 0.960197 0.453954
158 4 0.384263 0.0415468 0.394772
371 4 0.390176 0.0788918 0.380705
156 2 0.412035 0.0262114 0.377626
659 4 0.0101818 0.154532 0.346891
543 2 0.206891 0.0968013 0.375555
545 4 0.207264 0.127429 0.356522
174 2 0.293144 0.103438 0.393792
176 4 0.285201 0.0865672 0.424658
175 4 0.301087 0.120309 0.362927
369 2 0.394365 0.107575 0.402157
1019 4 0.30979 0.138851 0.332032
1163 4 0.393142 0.161481 0.451627
808 4 0.469815 0.869623 0.493494
909 2 0.144752 0.18381 0.369576
584 4 0.323732 0.19779 0.418791
582 2 0.296709 0.195718 0.395002
1162 4 0.353363 0.218905 0.433688
1161 2 0.373252 0.190193 0.442657
3 3 0.445966 0.200342 0.371606
910 4 0.149283 0.172138 0.403394
506 4 0.251755 0.2807 0.343175
505 4 0.221274 0.321088 0.394571
504 2 0.236515 0.300894 0.368873
564 2 0.41128 0.328889 0.36076
566 4 0.417744 0.293419 0.36147
565 4 0.404815 0.364359 0.360051
398 4 0.0405545 0.461558 0.374871
396 2 0.0132474 0.439399 0.366887
1259 4 0.0708605 0.45513 0.395913
1257 2 0.0898023 0.483085 0.383259
679 4 0.177733 0.511206 0.432517
1450 4 0.3656 0.452723 0.34826
1449 2 0.357883 0.441386 0.381611
159 2 0.0565686 0.553161 0.397817
161 4 0.0854405 0.543366 0.37855
160 4 0.0277001 0.562955 0.417081
827 4 0.12587 0.514938 0.33396
116 4 0.153156 0.545041 0.334473
272 4 0.0885628 0.529791 0.340327
1258 4 0.108739 0.511048 0.370602
667 4 0.120251 0.547983 0.35813
666 2 0.124691 0.58212 0.368859
680 4 0.148739 0.520415 0.367137
114 2 0.188453 0.552278 0.332798
678 2 0.163228 0.515812 0.399824
697 4 0.150088 0.639694 0.405599
698 4 0.219184 0.657932 0.415327
696 2 0.184636 0.648813 0.410463
401 4 0.495145 0.638798 0.447562
416 4 0.479044 0.606425 0.447488
207 2 0.069825 0.682591 0.359994
209 4 0.0443029 0.676397 0.384706
208 4 0.0953479 0.688784 0.335283
620 4 0.145236 0.67684 0.321178
618 2 0.157738 0.701602 0.344219
757 4 0.185066 0.757183 0.35069
196 4 0.314039 0.70493 0.366544
195 2 0.329275 0.699425 0.334326
1189 4 0.281821 0.720402 0.363023
1188 2 0.26111 0.748384 0.372431
719 4 0.0631507 0.804851 0.347018
717 2 0.0802202 0.776288 0.360918
718 4 0.0972893 0.747725 0.37482
1190 4 0.2404 0.776366 0.381839
155 4 0.475107 0.0299386 0.230899
427 4 0.0303339 0.934139 0.390532
760 4 0.0384958 0.895721 0.390206
493 4 0.41642 0.84538 0.415177
1317 2 0.267712 0.824433 0.000930343
1313 4 0.450344 0.87216 0.345477
1311 2 0.428091 0.851157 0.364558
1312 4 0.405837 0.830155 0.38364
8 3 0.427214 0.933317 0.427041
426 2 0.0403162 0.963571 0.408823
428 4 0.0503003 0.993004 0.427112
508 4 0.123784 0.978158 0.33528
198 2 0.277121 0.972895 0.437108
810 2 0.344746 0.941733 0.312983
812 4 0.365325 0.938211 0.342385
1509 2 0.353434 0.958159 0.393553
9 3 0.383555 0.906056 0.408192
1511 4 0.378819 0.934068 0.384855
157 4 0.439806 0.0108741 0.360482
1439 4 0.0592903 0.0265981 0.40247
1152 2 0.0198274 0.72329 0.413743
406 4 0.0187686 0.295921 0.107943
1437 2 0.0275196 0.0367381 0.41619
206 4 0.112934 0.0877042 0.498168
725 4 0.208192 0.0571362 0.428785
724 4 0.232427 0.0364038 0.493472
723 2 0.22031 0.0467698 0.461129
726 2 0.324236 0.0357322 0.423655
727 4 0.298356 0.0557967 0.438758
1510 4 0.328051 0.982252 0.40225
728 4 0.350115 0.0156674 0.408552
544 4 0.206519 0.0661742 0.394587
370 4 0.398555 0.136258 0.423609
583 4 0.269687 0.193646 0.371213
1168 4 0.437353 0.238325 0.420213
229 4 0.0516839 0.247185 0.409948
228 2 0.0232656 0.263789 0.424682
230 4 0.994847 0.280393 0.439417
154 4 0.483779 0.96296 0.256202
1246 4 0.373162 0.361799 0.390913
1169 4 0.408884 0.259551 0.482987
1167 2 0.423118 0.248938 0.4516
349 4 0.0115311 0.352839 0.411704
182 4 0.0500246 0.441077 0.438006
1247 4 0.302908 0.356938 0.406484
1245 2 0.338035 0.359368 0.398699
399 2 0.497883 0.654702 0.415313
180 2 0.0793981 0.42942 0.455377
1286 4 0.133511 0.436275 0.494513
286 4 0.140103 0.0887651 0.473295
1284 2 0.152574 0.458127 0.473078
1285 4 0.171638 0.47998 0.451643
1249 4 0.378573 0.4157 0.434734
1451 4 0.350167 0.430049 0.414963
1248 2 0.382816 0.421582 0.470058
181 4 0.108773 0.417764 0.472747
6 1 0.406562 0.907545 0.432449
484 4 0.307931 0.529625 0.494217
483 2 0.308851 0.545876 0.462037
485 4 0.309771 0.562126 0.429858
415 4 0.433424 0.550757 0.442839
414 2 0.456234 0.578591 0.445164
1000 4 0.476883 0.49302 0.498764
668 4 0.129134 0.616261 0.379587
405 2 0.0175302 0.320674 0.134138
1329 2 0.0146605 0.0645301 0.215885
660 2 0.26881 0.831572 0.411499
662 4 0.244676 0.809183 0.39678
492 2 0.429578 0.827317 0.44348
494 4 0.442736 0.809255 0.471783
608 4 0.22264 0.917129 0.45403
1513 4 0.197179 0.901536 0.475408
606 2 0.254236 0.900337 0.449539
607 4 0.285831 0.883545 0.445049
661 4 0.292945 0.853961 0.426219
7 3 0.424196 0.879444 0.432244
1025 4 0.0297414 0.762747 0.173116
684 2 0.0522122 0.236889 0.00331886
578 4 0.491641 0.494113 0.202072
835 4 0.493286 0.593084 0.21182
759 2 0.00678005 0.903517 0.374918
1348 4 0.383749 0.107071 0.483067
514 4 0.132502 0.701172 0.48619
1512 2 0.17189 0.886229 0.496062
221 4 0.0795767 0.38825 0.787043
285 2 0.157589 0.0718728 0.499931
287 4 0.175073 0.0549816 0.526565
1075 4 0.191051 0.0758545 0.551792
1074 2 0.224526 0.0849104 0.561681
1076 4 0.258002 0.0939666 0.57157
1349 4 0.38405 0.0683158 0.543892
908 4 0.391308 0.0406375 0.52564
906 2 0.395381 0.0116816 0.546744
1201 4 0.488325 0.406305 0.524344
1256 4 0.336788 0.115655 0.610772
1347 2 0.383899 0.0876927 0.513479
431 4 0.338834 0.155098 0.520408
1084 4 0.142632 0.178898 0.536951
1083 2 0.140007 0.198464 0.567128
1085 4 0.137382 0.21803 0.597306
429 2 0.350109 0.187673 0.530996
430 4 0.361385 0.220249 0.541585
329 4 0.39776 0.220875 0.548852
216 2 0.0211362 0.304981 0.561478
880 4 0.23966 0.266718 0.504016
879 2 0.211153 0.254603 0.522482
890 4 0.432991 0.318384 0.548543
884 4 0.460003 0.321409 0.524928
883 4 0.492652 0.289476 0.580749
882 2 0.476328 0.305442 0.552838
395 4 0.216454 0.401128 0.541804
393 2 0.191134 0.377422 0.55167
1520 4 0.251234 0.387777 0.543442
888 2 0.407348 0.343207 0.543384
889 4 0.381705 0.36803 0.538226
712 4 0.186944 0.0544077 0.952626
1200 2 0.454592 0.413596 0.513887
1518 2 0.278533 0.408641 0.55439
107 4 0.305266 0.466589 0.564494
1519 4 0.305833 0.429505 0.565339
105 2 0.311177 0.480136 0.531601
1034 4 0.170603 0.576297 0.589112
1033 4 0.189224 0.50702 0.581645
1032 2 0.179914 0.541658 0.585378
106 4 0.317088 0.493685 0.498709
558 2 0.45899 0.53343 0.531911
560 4 0.460972 0.569192 0.536106
559 4 0.457007 0.497669 0.527715
515 4 0.114131 0.665092 0.545876
863 4 0.348609 0.613814 0.558802
861 2 0.334433 0.640281 0.538829
1202 4 0.420859 0.420888 0.50343
881 4 0.182646 0.242489 0.540948
513 2 0.123316 0.683132 0.516033
800 4 0.284435 0.674887 0.519551
798 2 0.297335 0.708479 0.521904
568 4 0.33714 0.721538 0.567006
346 4 0.476174 0.703169 0.752963
1187 4 0.0998512 0.785588 0.549952
1185 2 0.0722137 0.80792 0.543802
799 4 0.310236 0.742072 0.524256
683 4 0.269669 0.800519 0.585601
681 2 0.273387 0.778087 0.557611
682 4 0.277105 0.755656 0.529621
1266 2 0.0640573 0.896737 0.529681
1267 4 0.0504534 0.865398 0.541225
1186 4 0.0445757 0.830253 0.537651
385 4 0.146118 0.870132 0.561304
1514 4 0.1466 0.870924 0.516716
384 2 0.152754 0.852476 0.59204
56 4 0.421044 0.651531 0.987559
1480 4 0.25707 0.889386 0.631149
807 2 0.442253 0.875673 0.515947
809 4 0.414691 0.881723 0.5384
1268 4 0.0776607 0.928075 0.518138
907 4 0.399455 0.982725 0.567848
1043 4 0.406158 0.943029 0.562119
1120 4 0.384755 0.0504297 0.643374
1121 4 0.38703 0.982607 0.61895
1119 2 0.385893 0.0165182 0.631162
1255 4 0.292662 0.0936646 0.558132
1254 2 0.314725 0.10466 0.584452
1425 2 0.330799 0.159845 0.651078
1427 4 0.323562 0.148592 0.684565
677 4 0.0898181 0.193507 0.645302
1426 4 0.338036 0.171099 0.61759
327 2 0.408145 0.212457 0.582343
328 4 0.41853 0.204039 0.615835
218 4 0.0535807 0.315829 0.550072
169 4 0.0559576 0.345222 0.566539
394 4 0.165814 0.353715 0.561537
1505 4 0.221431 0.317091 0.632844
806 4 0.306436 0.302657 0.640341
1412 4 0.45586 0.334025 0.616423
602 4 0.442764 0.300913 0.621924
170 4 0.0741506 0.392875 0.617526
168 2 0.0650536 0.369048 0.592033
551 4 0.109706 0.409341 0.620303
804 2 0.274605 0.305091 0.623569
805 4 0.242774 0.307525 0.606797
1410 2 0.435918 0.36392 0.613429
1411 4 0.415974 0.393816 0.610436
103 4 0.00639431 0.471174 0.659771
102 2 0.0113526 0.501935 0.677926
549 2 0.131927 0.408633 0.648695
550 4 0.154149 0.407926 0.677087
104 4 0.0163108 0.532696 0.696081
516 2 0.452551 0.588365 0.590023
518 4 0.433813 0.57726 0.561284
291 2 0.111859 0.645192 0.614582
292 4 0.0893771 0.658041 0.589485
293 4 0.134341 0.632342 0.639679
517 4 0.47129 0.59947 0.618762
1442 4 0.46594 0.612774 0.655106
1440 2 0.472863 0.646931 0.664371
567 2 0.364458 0.742083 0.555514
1441 4 0.479785 0.681087 0.673635
386 4 0.15939 0.83482 0.622775
569 4 0.391775 0.762628 0.544022
791 4 0.181196 0.81091 0.636653
790 4 0.211584 0.800619 0.701247
789 2 0.19639 0.805764 0.66895
1481 4 0.269929 0.927605 0.571351
1479 2 0.2635 0.908496 0.60125
1517 4 0.396388 0.920932 0.635079
219 2 0.0546646 0.413939 0.782587
1041 2 0.402431 0.917473 0.587287
1042 4 0.398704 0.891918 0.612455
512 4 0.491384 0.989957 0.642731
859 4 0.502456 0.962657 0.65958
546 2 0.296523 0.120563 0.724632
511 4 0.45331 0.0111084 0.700217
1092 2 0.034983 0.0716487 0.730242
1094 4 0.0114394 0.0953343 0.716636
548 4 0.315212 0.102962 0.699308
205 4 0.0533356 0.0578492 0.525706
982 4 0.0189719 0.224449 0.700781
675 2 0.118014 0.207767 0.662679
676 4 0.146211 0.222028 0.680057
482 4 0.224614 0.23018 0.717091
137 4 0.230193 0.208444 0.748416
135 2 0.260379 0.194596 0.762468
136 4 0.290566 0.180748 0.776519
1021 4 0.395 0.227997 0.625809
601 4 0.455256 0.247394 0.668628
481 4 0.16196 0.256975 0.740717
1336 4 0.146418 0.283631 0.761955
480 2 0.193287 0.243578 0.728904
1504 4 0.206717 0.342628 0.698669
1106 4 0.189236 0.320438 0.720533
1503 2 0.214074 0.32986 0.665756
1022 4 0.333351 0.252819 0.653823
1020 2 0.364175 0.240408 0.639816
600 2 0.44901 0.274154 0.645276
1158 2 0.120231 0.402906 0.750221
1160 4 0.0984975 0.37733 0.763409
1097 4 0.353869 0.386763 0.723113
1096 4 0.423218 0.378614 0.70506
1095 2 0.388544 0.382688 0.714086
772 4 0.153626 0.475454 0.715283
94 4 0.27903 0.534334 0.750171
656 4 0.269898 0.586924 0.691828
655 4 0.269864 0.594962 0.763502
654 2 0.269881 0.590944 0.727665
802 4 0.436797 0.615447 0.744951
64 4 0.0664047 0.671228 0.780317
934 4 0.232563 0.689633 0.725648
933 2 0.265318 0.691752 0.740583
935 4 0.298071 0.693871 0.755518
841 4 0.316012 0.708443 0.731164
347 4 0.480453 0.712564 0.681584
611 4 0.025885 0.845667 0.744275
470 4 0.106799 0.934877 0.680936
1048 4 0.334158 0.864383 0.750759
1049 4 0.286984 0.910807 0.722104
1047 2 0.310571 0.887595 0.736432
994 4 0.466901 0.920463 0.74681
468 2 0.128937 0.939067 0.709093
469 4 0.151074 0.943257 0.737249
1516 4 0.378428 0.935858 0.703316
1515 2 0.387408 0.928395 0.669197
211 4 0.430731 0.00899469 0.728802
510 2 0.472347 0.000532294 0.671474
547 4 0.277834 0.138163 0.749957
38 3 0.446373 0.0431098 0.80713
212 4 0.427429 0.010796 0.800827
210 2 0.42908 0.00989534 0.764815
37 3 0.481863 0.0544935 0.846491
1093 4 0.0585269 0.0479632 0.743847
324 2 0.46987 0.133955 0.792113
325 4 0.46597 0.0987095 0.785561
326 4 0.473769 0.1692 0.798665
1335 2 0.114059 0.269515 0.76931
1337 4 0.081701 0.255398 0.776664
85 4 0.354265 0.233019 0.736006
86 4 0.29482 0.258096 0.768242
84 2 0.324542 0.245558 0.752124
220 4 0.0297547 0.43963 0.77813
254 4 0.105883 0.318608 0.834317
252 2 0.116093 0.35156 0.844822
1105 4 0.153456 0.366294 0.763179
1104 2 0.171347 0.343367 0.741856
1068 2 0.315078 0.398296 0.82086
1070 4 0.31327 0.365909 0.805105
1069 4 0.316885 0.430683 0.836615
731 4 0.430407 0.430758 0.779372
729 2 0.454542 0.457339 0.776007
730 4 0.478677 0.483921 0.772641
1159 4 0.141964 0.428482 0.737033
771 2 0.174597 0.467667 0.743566
95 4 0.316399 0.473064 0.757325
1352 4 0.49258 0.51622 0.774414
477 2 0.0421006 0.556718 0.776528
479 4 0.0560133 0.533014 0.799874
773 4 0.195569 0.45988 0.77185
93 2 0.297715 0.503699 0.753748
803 4 0.453991 0.545471 0.748012
65 4 0.0403831 0.612989 0.746662
63 2 0.0533937 0.642108 0.76349
478 4 0.0281882 0.580421 0.753184
1028 4 0.280193 0.609544 0.79493
1027 4 0.29669 0.670196 0.830296
1026 2 0.288441 0.63987 0.812613
801 2 0.445394 0.580458 0.746482
763 4 0.430465 0.653621 0.817232
638 4 0.468216 0.648242 0.811236
183 2 0.0606932 0.713558 0.79123
73 4 0.0995956 0.718518 0.765668
72 2 0.13382 0.728919 0.770239
184 4 0.0714817 0.698394 0.760342
74 4 0.168045 0.739321 0.774811
840 2 0.343392 0.725536 0.747244
636 2 0.487017 0.664454 0.78508
762 2 0.411128 0.677911 0.835577
610 4 0.0352811 0.795276 0.795012
609 2 0.0305835 0.820472 0.769643
185 4 0.0499051 0.728723 0.822118
275 4 0.202699 0.750904 0.774382
274 4 0.248917 0.792485 0.737821
273 2 0.225809 0.771694 0.756102
842 4 0.370772 0.74263 0.763323
1340 4 0.391651 0.804972 0.772924
1338 2 0.378475 0.824462 0.745593
335 4 0.122198 0.894019 0.841463
1274 4 0.123559 0.923962 0.821551
1339 4 0.365299 0.843952 0.718262
995 4 0.446449 0.918925 0.815954
993 2 0.456674 0.919695 0.781382
1273 4 0.0764979 0.944781 0.77102
1272 2 0.100028 0.934371 0.796285
76 4 0.273144 0.0333563 0.837724
75 2 0.29678 0.0596246 0.844914
77 4 0.320416 0.0858932 0.852104
1460 4 0.321164 0.0839926 0.887638
40 3 0.434777 0.0805184 0.844746
36 1 0.449593 0.0517123 0.83931
39 3 0.436158 0.0280959 0.858847
785 4 0.11851 0.101762 0.83377
783 2 0.142498 0.0867555 0.856125
1458 2 0.319643 0.0788075 0.923293
986 4 0.163411 0.224579 0.925901
1387 4 0.282522 0.251163 0.86356
1492 4 0.468991 0.202755 0.791732
1491 2 0.442194 0.209115 0.815011
595 4 0.0028238 0.268883 0.841794
1386 2 0.289191 0.281355 0.882118
1388 4 0.29586 0.311547 0.900677
847 4 0.421695 0.229287 0.92433
1493 4 0.415397 0.215476 0.83829
253 4 0.126303 0.384511 0.855327
792 2 0.136639 0.402674 0.908922
794 4 0.112428 0.385243 0.888663
241 4 0.248122 0.432976 0.900654
240 2 0.220199 0.426568 0.922555
1002 2 0.39822 0.552125 0.883639
1003 4 0.411974 0.532238 0.910392
1004 4 0.384466 0.572012 0.856885
1230 2 0.995937 0.686555 0.864865
1232 4 0.0188292 0.676556 0.838859
1318 4 0.261286 0.823086 0.965471
314 4 0.415353 0.733046 0.839094
764 4 0.391793 0.702201 0.853922
312 2 0.43137 0.756368 0.861452
313 4 0.447387 0.779691 0.883811
1434 2 0.23925 0.791117 0.861797
1435 4 0.210401 0.76948 0.861848
1436 4 0.268099 0.812753 0.861746
1346 4 0.327934 0.807594 0.886538
1344 2 0.344275 0.794544 0.915916
333 2 0.154349 0.880386 0.850456
51 2 0.231573 0.859897 0.911467
334 4 0.1865 0.866754 0.859448
53 4 0.216028 0.874514 0.882397
914 4 0.453717 0.91717 0.953329
913 4 0.472536 0.947772 0.890789
912 2 0.463127 0.932471 0.922058
454 4 0.496907 0.863264 0.879921
249 2 0.115678 0.978491 0.86373
250 4 0.106496 0.947965 0.880588
251 4 0.124859 0.00902001 0.846871
711 2 0.165896 0.0258937 0.959288
713 4 0.14485 0.997379 0.965949
704 4 0.293912 0.0784113 0.982124
702 2 0.28821 0.0459557 0.996771
593 4 0.0262956 0.0645034 0.93156
862 4 0.320256 0.666748 0.518855
1238 4 0.188365 0.0717718 0.910052
1237 4 0.17614 0.130641 0.949885
1236 2 0.182253 0.101206 0.929969
784 4 0.166486 0.0717501 0.878483
1459 4 0.318124 0.0736238 0.958946
1072 4 0.467632 0.134086 0.926738
1071 2 0.441977 0.133595 0.952076
52 4 0.247118 0.845279 0.940538
686 4 0.0878562 0.237511 0.99788
984 2 0.141666 0.224535 0.954668
985 4 0.119922 0.224491 0.983436
571 4 0.0074269 0.00569115 0.839708
337 4 0.190739 0.205262 0.917515
336 2 0.218195 0.21152 0.94004
338 4 0.245651 0.217779 0.962565
121 4 0.252126 0.196492 0.990301
1198 4 0.484964 0.202542 0.977433
1197 2 0.477645 0.23341 0.994581
848 4 0.370367 0.279188 0.915558
846 2 0.396031 0.254237 0.919944
147 2 0.456285 0.561926 0.946304
194 4 0.274868 0.34996 0.949898
345 2 0.478313 0.707866 0.717273
192 2 0.287783 0.356083 0.983006
886 4 0.156272 0.458835 0.988264
793 4 0.160849 0.420104 0.92918
1345 4 0.360617 0.781494 0.945294
242 4 0.192277 0.42016 0.944457
130 4 0.232783 0.482331 0.955722
129 2 0.267637 0.476357 0.962787
647 4 0.314934 0.441922 0.99069
131 4 0.302492 0.470383 0.969852
832 4 0.151251 0.508139 0.978873
831 2 0.135802 0.5361 0.995604
149 4 0.476737 0.574389 0.919345
1204 4 0.215985 0.583769 0.988418
148 4 0.435833 0.549464 0.973264
355 4 0.116112 0.661999 0.869402
356 4 0.0931013 0.661285 0.937752
354 2 0.104606 0.661642 0.903577
54 2 0.396775 0.638498 0.964287
55 4 0.372506 0.625464 0.941016
1073 4 0.416322 0.133103 0.977413
1333 4 0.153382 0.212037 0.996749
204 2 0.0831342 0.0727768 0.511937
1250 4 0.387059 0.427465 0.505383
1291 4 0.632043 0.0624304 0.000488702
68 4 0.749047 0.045159 0.0150265
735 2 0.638892 0.131854 0.0722113
737 4 0.666009 0.14695 0.0538489
1220 4 0.688896 0.120947 0.037397
1218 2 0.708731 0.0908624 0.0387933
1219 4 0.728565 0.0607788 0.0401904
1149 2 0.599413 0.208096 0.0654228
1151 4 0.61349 0.194231 0.0352562
1226 4 0.55465 0.296463 0.480899
1148 4 0.82581 0.232029 0.0558409
1146 2 0.800958 0.255925 0.066414
1147 4 0.776107 0.279821 0.0769868
542 4 0.527778 0.639075 0.471327
360 2 0.683435 0.248128 0.0714079
361 4 0.708731 0.25659 0.0471392
1421 4 0.57076 0.252231 0.0185294
362 4 0.65814 0.239665 0.0956757
150 2 0.867172 0.269069 0.0154318
151 4 0.897315 0.283046 0.00142004
650 4 0.926563 0.295628 0.00332766
648 2 0.950936 0.271747 0.0149923
635 4 0.528114 0.433357 0.0384545
17 3 0.553 0.411747 0.0528495
996 2 0.637915 0.41447 0.00679886
96 2 0.793061 0.368181 0.080901
97 4 0.781667 0.386624 0.109719
1139 4 0.815627 0.366819 0.0210743
98 4 0.804456 0.349739 0.0520844
18 3 0.575907 0.455329 0.0755274
20 3 0.601703 0.427788 0.0364776
997 4 0.609008 0.435026 0.000301212
16 1 0.581812 0.425085 0.0624753
19 3 0.595767 0.405225 0.0855132
1111 4 0.747743 0.519313 0.071165
999 2 0.504707 0.500377 0.477035
246 2 0.740087 0.444446 0.0114709
247 4 0.74143 0.423772 0.0409878
745 4 0.965808 0.424634 0.108841
1112 4 0.709946 0.520631 0.132576
1110 2 0.728844 0.519971 0.10187
633 2 0.524524 0.462303 0.0172504
936 2 0.526833 0.712486 0.250945
1066 4 0.505129 0.0770943 0.329548
281 4 0.790054 0.676077 0.995306
450 2 0.678716 0.739513 0.0293408
452 4 0.68693 0.704788 0.0241253
1473 2 0.503864 0.800375 0.199882
1397 4 0.896857 0.693022 0.0328579
1395 2 0.901807 0.697363 0.0683132
973 4 0.96696 0.85719 0.0617847
1331 4 0.990829 0.0913605 0.212328
490 4 0.966823 0.117984 0.193917
179 4 0.622932 0.913029 0.0204158
974 4 0.961818 0.900269 0.00417059
972 2 0.964388 0.87873 0.0329778
1006 4 0.699474 0.9891 0.0166438
688 4 0.697718 0.953483 0.0155117
1005 2 0.721324 0.993253 0.0450296
941 4 0.56953 0.11376 0.152031
188 4 0.73319 0.133723 0.201385
736 4 0.611774 0.116758 0.0905729
391 4 0.574962 0.133621 0.179384
186 2 0.701668 0.137895 0.184373
108 2 0.878154 0.162391 0.162567
110 4 0.894182 0.146773 0.190843
1150 4 0.585336 0.221961 0.0955888
224 4 0.549216 0.288349 0.151922
392 4 0.620241 0.186362 0.198615
390 2 0.597602 0.159991 0.188999
1217 4 0.722123 0.191612 0.100816
1215 2 0.689875 0.184602 0.115353
109 4 0.862125 0.17801 0.134291
223 4 0.582985 0.310465 0.0921552
222 2 0.5661 0.299407 0.122039
1216 4 0.657627 0.177593 0.129891
89 4 0.5331 0.391223 0.0808711
87 2 0.530501 0.391148 0.116839
88 4 0.527903 0.391072 0.152807
387 2 0.652555 0.449982 0.0928056
389 4 0.684061 0.467178 0.0962663
744 2 0.958529 0.389435 0.105934
533 4 0.679236 0.264975 0.0166409
746 4 0.951249 0.354236 0.103026
614 4 0.510601 0.866715 0.361329
1142 4 0.549382 0.498244 0.150315
451 4 0.670502 0.774237 0.0345556
388 4 0.621046 0.432786 0.0893444
1141 4 0.599722 0.450728 0.130071
1140 2 0.574551 0.474486 0.140193
1408 4 0.798589 0.579125 0.141457
1468 4 0.813872 0.54566 0.12899
1469 4 0.871907 0.505407 0.114387
1467 2 0.842889 0.525534 0.121688
70 4 0.849497 0.659073 0.180901
69 2 0.866733 0.670928 0.151527
1222 4 0.521933 0.709521 0.122448
1221 2 0.519016 0.736963 0.145663
71 4 0.883968 0.682784 0.122154
1396 4 0.906756 0.701704 0.103768
404 4 0.994461 0.677702 0.162228
1223 4 0.516099 0.764404 0.168876
307 4 0.701058 0.835816 0.192639
306 2 0.684758 0.803649 0.192837
319 4 0.816133 0.814502 0.193999
318 2 0.787193 0.805087 0.174654
320 4 0.758253 0.795672 0.15531
437 4 0.850106 0.817919 0.194102
901 4 0.535668 0.0478081 0.202461
321 2 0.540325 0.880349 0.128298
322 4 0.524707 0.898611 0.10141
1088 4 0.709188 0.891772 0.090665