ITEM: TIMESTEP
1079000
ITEM: NUMBER OF ATOMS
1520
ITEM: BOX BOUNDS pp pp pp
-6.9326749999999997e+00 6.9326749999999997e+00
-6.9326749999999997e+00 6.9326749999999997e+00
-6.9326749999999997e+00 6.9326749999999997e+00
ITEM: ATOMS id type xs ys zs
1019 4 0.0874092 0.0384325 0.00436174
729 2 0.0798567 0.0873973 0.0737765
1342 4 0.169175 0.0865263 0.0451814
910 4 0.26103 0.0814163 0.00225715
1060 4 0.261253 0.974811 0.0319504
200 4 0.428316 0.0655644 0.0549805
198 2 0.402179 0.0698242 0.0794574
304 4 0.448142 0.0184337 0.077178
303 2 0.428505 0.993355 0.0940846
712 4 0.483775 0.0317081 0.0752043
1255 4 0.0669066 0.1429 0.0871444
1254 2 0.0937697 0.161573 0.0719746
730 4 0.0811824 0.111293 0.100751
158 4 0.320433 0.144434 0.486591
199 4 0.376041 0.074084 0.103934
134 4 0.108941 0.199675 0.0237385
624 2 0.498614 0.726667 0.458455
1256 4 0.120632 0.180245 0.0568038
1053 2 0.234182 0.216526 0.0829741
1054 4 0.269618 0.210447 0.0801847
22 3 0.27277 0.193637 0.0219469
23 3 0.325705 0.202805 0.0147171
24 3 0.304787 0.199594 0.0652812
21 1 0.303048 0.187596 0.0340891
1025 4 0.487922 0.783238 0.144853
153 2 0.026907 0.29379 0.0128795
453 2 0.310086 0.659449 0.00268507
155 4 0.033198 0.317932 0.0389174
790 4 0.169944 0.253902 0.0581372
789 2 0.139035 0.265119 0.0729432
791 4 0.108126 0.276337 0.0877491
905 4 0.23865 0.321621 0.040587
903 2 0.214243 0.295264 0.037429
904 4 0.189836 0.268906 0.0342708
1239 2 0.358525 0.247598 0.0166171
1240 4 0.365526 0.272667 0.0415767
901 4 0.258761 0.326265 0.0667001
1358 4 0.287218 0.372204 0.0362317
1356 2 0.322356 0.364933 0.0326389
573 2 0.0106856 0.939546 0.246109
1357 4 0.357493 0.357662 0.0290456
602 4 0.201092 0.504603 0.0227526
172 4 0.283708 0.404997 0.017476
634 4 0.493893 0.442717 0.0516703
633 2 0.49777 0.45133 0.0168687
1272 2 0.120526 0.528739 0.0543495
1274 4 0.126522 0.558492 0.0738225
745 4 0.503671 0.432594 0.135815
1058 4 0.195193 0.592492 0.0491882
1208 4 0.121539 0.624432 0.0616743
1008 2 0.094843 0.603579 0.00768051
1009 4 0.0934314 0.617688 0.0408368
1056 2 0.201868 0.588879 0.0139345
1373 4 0.0136483 0.636472 0.10228
702 2 0.388956 0.668596 0.0178534
703 4 0.420241 0.680307 0.0314373
58 4 0.0311639 0.406595 0.0698731
146 4 0.153008 0.721691 0.081984
144 2 0.161357 0.738235 0.0510482
103 4 0.234862 0.753835 0.0463716
102 2 0.2515 0.722172 0.0417819
104 4 0.268138 0.690509 0.0371919
353 4 0.016233 0.160291 0.304858
783 2 0.472557 0.699948 0.0536964
785 4 0.460904 0.672941 0.0328342
145 4 0.169707 0.754777 0.020112
993 2 0.285275 0.795816 0.0570034
994 4 0.2888 0.78527 0.0226991
526 4 0.245267 0.728269 0.119797
995 4 0.281749 0.806361 0.0913076
614 4 0.345522 0.881431 0.0862991
612 2 0.312579 0.875481 0.099708
644 4 0.245748 0.981317 0.0660613
1059 2 0.294055 0.983113 0.0194782
344 4 0.379837 0.888037 0.0765773
342 2 0.390274 0.906583 0.0474658
343 4 0.400712 0.92513 0.0183542
876 2 0.0324056 0.0341297 0.104161
878 4 0.0624315 0.014245 0.102309
731 4 0.0785306 0.0635025 0.0468017
1341 2 0.170022 0.0583154 0.0676278
1343 4 0.170869 0.0301037 0.090073
834 2 0.147163 0.0113027 0.128964
835 4 0.172858 0.0358806 0.122962
489 2 0.316993 0.0469148 0.132935
490 4 0.293677 0.0228496 0.146265
491 4 0.340309 0.0709792 0.119606
584 4 0.393877 0.131021 0.209057
583 4 0.416355 0.114202 0.142622
582 2 0.405116 0.122612 0.17584
1055 4 0.198747 0.222604 0.0857634
25 3 0.308376 0.155186 0.0342353
938 4 0.37018 0.352471 0.167093
1002 2 0.098612 0.376567 0.188161
1004 4 0.115564 0.381063 0.156651
900 2 0.25207 0.359377 0.0793182
902 4 0.245381 0.39249 0.0919368
105 2 0.00465911 0.432097 0.0952833
107 4 0.00734599 0.465445 0.10874
137 4 0.155438 0.463946 0.142001
1061 4 0.326857 0.991414 0.00700697
744 2 0.486135 0.437413 0.166955
598 4 0.0700956 0.604151 0.143786
1273 4 0.11453 0.498985 0.0348772
750 2 0.140106 0.577379 0.165632
751 4 0.160064 0.593766 0.140462
1288 4 0.498557 0.560283 0.122564
980 4 0.287885 0.939316 0.474912
597 2 0.0378187 0.601692 0.127894
599 4 0.00554168 0.599232 0.112002
821 4 0.146946 0.690151 0.120694
446 4 0.266673 0.632763 0.200122
1207 4 0.12727 0.691509 0.0875493
1206 2 0.124405 0.657971 0.0746114
822 2 0.14987 0.755372 0.132468
823 4 0.161978 0.75313 0.0985756
169 4 0.13083 0.908635 0.0128179
824 4 0.137761 0.757615 0.166362
527 4 0.297541 0.760058 0.157989
525 2 0.271404 0.744164 0.138893
455 4 0.288931 0.660298 0.0318767
926 4 0.124424 0.8905 0.133747
952 4 0.194709 0.896873 0.163455
951 2 0.220285 0.9139 0.144578
953 4 0.24586 0.930927 0.125699
613 4 0.279637 0.869532 0.113117
1458 2 0.399511 0.876333 0.14162
1460 4 0.378574 0.899138 0.123127
347 4 0.150835 0.819261 0.446841
924 2 0.133444 0.925076 0.128887
925 4 0.142462 0.959651 0.124027
643 4 0.276141 0.991255 0.130709
642 2 0.260944 0.986286 0.0983852
305 4 0.408869 0.968275 0.110992
1345 4 0.333519 0.0942123 0.224177
875 4 0.333653 0.0815995 0.26073
1344 2 0.307536 0.108669 0.203772
1346 4 0.281553 0.123125 0.183368
1366 4 0.391551 0.163758 0.236801
1365 2 0.41417 0.189177 0.224854
1159 4 0.0158487 0.306158 0.175746
1158 2 0.0429176 0.32122 0.194208
1003 4 0.0816594 0.37207 0.21967
1160 4 0.069986 0.336282 0.21267
991 4 0.226176 0.415795 0.224943
990 2 0.234323 0.412292 0.259897
967 4 0.338462 0.434106 0.255734
937 4 0.34609 0.329244 0.103203
936 2 0.358135 0.340857 0.135148
968 4 0.300361 0.495338 0.256482
966 2 0.319411 0.464721 0.256108
746 4 0.468598 0.442234 0.198093
462 2 0.462759 0.499762 0.223033
464 4 0.474614 0.477793 0.197009
774 2 0.0621613 0.567021 0.221413
775 4 0.0286236 0.579026 0.227031
752 4 0.120147 0.560991 0.190801
136 4 0.207929 0.507283 0.165838
135 2 0.181683 0.485614 0.153919
776 4 0.0956983 0.555017 0.215795
689 4 0.339083 0.567488 0.185239
688 4 0.311635 0.5117 0.221791
687 2 0.325359 0.539594 0.203515
1287 2 0.470746 0.544259 0.139004
463 4 0.450904 0.52173 0.249057
819 2 0.152131 0.673992 0.152512
509 4 0.201429 0.57681 0.239183
507 2 0.205355 0.605287 0.260957
444 2 0.287932 0.659847 0.1894
1213 4 0.407688 0.536926 0.148987
1289 4 0.442936 0.528235 0.155443
1212 2 0.386829 0.562689 0.163188
1448 4 0.470153 0.672093 0.223236
1099 4 0.269872 0.975003 0.473122
1447 4 0.401391 0.685172 0.240625
1446 2 0.435772 0.678632 0.23193
820 4 0.157315 0.657833 0.184331
445 4 0.309191 0.68693 0.17868
245 4 0.486528 0.76365 0.176206
244 4 0.487673 0.698064 0.206184
243 2 0.487101 0.730857 0.191195
1259 4 0.0720469 0.751942 0.176322
1257 2 0.0788116 0.753235 0.21172
1166 4 0.233464 0.807614 0.248333
404 4 0.0145119 0.890186 0.239404
574 4 0.0360574 0.914063 0.248814
315 2 0.0768356 0.942491 0.205273
316 4 0.0881114 0.973277 0.190257
160 4 0.105649 0.862744 0.264832
43 3 0.15282 0.907424 0.184477
159 2 0.103183 0.827344 0.258414
44 3 0.200678 0.882194 0.193286
42 3 0.180301 0.916042 0.2304
41 1 0.17251 0.893286 0.20755
45 3 0.15672 0.868387 0.222024
504 2 0.25898 0.962861 0.196646
1152 2 0.406719 0.841115 0.218529
1153 4 0.403241 0.834026 0.183343
1459 4 0.420447 0.853527 0.160113
317 4 0.0655592 0.911704 0.220289
836 4 0.121467 0.986724 0.134967
506 4 0.287926 0.963113 0.17514
1221 2 0.0539041 0.0471628 0.332123
1222 4 0.050364 0.0801128 0.317907
873 2 0.32897 0.0507066 0.278734
874 4 0.324286 0.0198141 0.296738
1462 4 0.0742641 0.0953749 0.300069
352 4 0.0318977 0.0914798 0.289984
351 2 0.0240654 0.125885 0.297421
394 4 0.170663 0.101876 0.304406
1463 4 0.136589 0.131081 0.306563
1461 2 0.105426 0.113228 0.303316
393 2 0.17781 0.134087 0.289852
1367 4 0.436788 0.214594 0.212907
1270 4 0.997189 0.174832 0.331122
884 4 0.209175 0.180127 0.300438
395 4 0.184956 0.166298 0.275299
882 2 0.242241 0.190742 0.290726
883 4 0.275308 0.201358 0.281014
1192 4 0.292027 0.203977 0.314116
1075 4 0.385841 0.209548 0.353008
418 4 0.118015 0.312787 0.264868
1129 4 0.153808 0.305491 0.271616
417 2 0.0975136 0.308649 0.294245
1128 2 0.179306 0.282309 0.282242
1130 4 0.204803 0.259126 0.292867
375 2 0.28479 0.329667 0.309952
89 4 0.381843 0.34008 0.338084
717 2 0.170849 0.396738 0.305387
718 4 0.201189 0.415802 0.309451
992 4 0.24247 0.40879 0.294851
377 4 0.252227 0.318561 0.299147
551 4 0.303586 0.487103 0.319705
1214 4 0.365972 0.588451 0.177388
549 2 0.335744 0.503356 0.321147
550 4 0.367902 0.519609 0.322589
787 4 0.347476 0.571336 0.367138
374 4 0.39906 0.524668 0.315859
373 4 0.447874 0.547359 0.267861
372 2 0.423467 0.536013 0.291861
508 4 0.209283 0.633762 0.28273
786 2 0.352048 0.589979 0.336609
95 4 0.338239 0.686869 0.303242
93 2 0.362714 0.668406 0.322229
826 4 0.0238436 0.687888 0.266904
825 2 0.0468382 0.714602 0.274521
270 2 0.122312 0.698558 0.253069
271 4 0.139388 0.671349 0.236683
679 4 0.998728 0.801467 0.274631
678 2 0.0332881 0.791193 0.273948
680 4 0.0678374 0.780923 0.273269
116 4 0.0762577 0.768872 0.311287
272 4 0.105228 0.725774 0.26946
161 4 0.100721 0.791951 0.251994
1258 4 0.0855675 0.754511 0.247109
827 4 0.0698473 0.741326 0.28214
830 4 0.0994116 0.734803 0.309316
667 4 0.103977 0.764384 0.282005
666 2 0.139858 0.76606 0.285108
1164 2 0.223619 0.781654 0.271346
1165 4 0.213775 0.755694 0.294359
668 4 0.175745 0.767726 0.288231
1154 4 0.410195 0.848205 0.253715
976 4 0.231969 0.851046 0.325114
505 4 0.230033 0.962608 0.218151
1387 4 0.298792 0.834126 0.336459
1386 2 0.329431 0.815351 0.339497
1430 4 0.472491 0.872178 0.338183
1428 2 0.483149 0.860009 0.305953
1348 4 0.134568 0.00942267 0.289854
1347 2 0.156672 0.987736 0.308335
1349 4 0.178774 0.966049 0.326817
312 2 0.21386 0.944093 0.283634
313 4 0.197205 0.936493 0.314703
314 4 0.230515 0.951694 0.252566
1223 4 0.0574435 0.0142121 0.34634
734 4 0.336363 0.0891878 0.373617
732 2 0.358383 0.0621262 0.382739
733 4 0.380402 0.0350647 0.391862
62 4 0.356944 0.116972 0.36193
60 2 0.376419 0.147019 0.35765
1220 4 0.0581733 0.24471 0.405279
908 4 0.0443804 0.21062 0.401022
906 2 0.0285538 0.178718 0.406699
1297 4 0.267323 0.296605 0.350923
1191 2 0.29726 0.212203 0.348834
1193 4 0.302494 0.220431 0.383552
61 4 0.395893 0.177066 0.35337
1074 2 0.420916 0.216518 0.357648
1076 4 0.455992 0.223489 0.362289
868 4 0.438567 0.240606 0.3902
1218 2 0.0636201 0.258035 0.372216
1219 4 0.0690671 0.271361 0.339153
419 4 0.0770137 0.304509 0.32362
1296 2 0.236346 0.279098 0.356781
754 4 0.229664 0.352214 0.369603
1298 4 0.20537 0.261589 0.362639
376 4 0.317352 0.340773 0.320757
65 4 0.398995 0.321769 0.428112
87 2 0.382276 0.313916 0.362897
867 2 0.443855 0.267358 0.413797
719 4 0.14051 0.377673 0.301323
753 2 0.224294 0.387695 0.373165
755 4 0.218924 0.423176 0.376727
88 4 0.38271 0.287752 0.38771
978 2 0.27322 0.918872 0.449079
299 4 0.0203648 0.491989 0.318905
692 4 0.32241 0.465587 0.344799
690 2 0.314459 0.438642 0.367408
691 4 0.306508 0.411697 0.390017
364 4 0.0702422 0.579179 0.337482
297 2 0.0403099 0.517695 0.334456
298 4 0.0602552 0.5434 0.350008
363 2 0.104007 0.591766 0.33608
1034 4 0.245332 0.531415 0.426457
1465 4 0.269822 0.506225 0.419264
1464 2 0.291629 0.530357 0.403691
1466 4 0.313437 0.554488 0.388118
1227 2 0.175219 0.626313 0.372583
365 4 0.137772 0.604352 0.334677
1229 4 0.170122 0.596589 0.352812
1228 4 0.180316 0.656037 0.392354
788 4 0.35662 0.608622 0.306082
828 2 0.0964211 0.710927 0.336193
829 4 0.0934276 0.68706 0.36306
94 4 0.387188 0.649943 0.341218
114 2 0.0862879 0.791701 0.337352
115 4 0.0963193 0.814519 0.363411
1388 4 0.360069 0.796577 0.342535
758 4 0.374956 0.828553 0.340248
979 4 0.258555 0.898427 0.423244
831 2 0.471499 0.811563 0.372298
1179 2 0.0989668 0.872181 0.335329
1180 4 0.0946742 0.848795 0.362442
1181 4 0.103259 0.895566 0.308216
975 2 0.2418 0.867524 0.355647
977 4 0.251631 0.884003 0.38618
1279 4 0.272553 0.91237 0.373672
756 2 0.407183 0.844049 0.344904
757 4 0.43941 0.859546 0.34956
832 4 0.435497 0.809516 0.37213
468 2 0.00932346 0.0691971 0.44203
469 4 0.00372972 0.0360765 0.428909
470 4 0.014917 0.102318 0.455151
516 2 0.192609 0.922267 0.41081
517 4 0.180792 0.953068 0.396249
1280 4 0.303802 0.977146 0.379078
1278 2 0.288177 0.944758 0.376376
1415 4 0.0828312 0.0486932 0.463359
1397 4 0.248261 0.0203201 0.395581
1396 4 0.300057 0.0174623 0.445687
1395 2 0.274159 0.0188912 0.420634
320 4 0.0050492 0.921586 0.441482
108 2 0.0235933 0.235265 0.499261
57 2 0.0344654 0.377554 0.048751
156 2 0.294993 0.122656 0.499969
984 2 0.0168284 0.294436 0.435838
986 4 0.0316696 0.265905 0.452151
110 4 0.0115828 0.239242 0.465493
907 4 0.0127271 0.146817 0.412376
784 4 0.484211 0.726955 0.0745583
64 4 0.373735 0.373695 0.471324
63 2 0.386364 0.347732 0.449718
1382 4 0.452112 0.2716 0.471061
869 4 0.449143 0.294112 0.437389
1216 4 0.479535 0.300631 0.463558
1215 2 0.499148 0.329939 0.456029
1380 2 0.447463 0.246971 0.496982
1429 4 0.493806 0.84784 0.273723
920 4 0.159922 0.39593 0.449436
1277 4 0.430843 0.779694 0.497724
520 4 0.343474 0.382017 0.468166
1098 2 0.234699 0.98198 0.476954
1309 4 0.341059 0.785302 0.493518
518 4 0.204428 0.891466 0.425373
1265 4 0.168278 0.43277 0.449565
918 2 0.157825 0.39665 0.485429
1263 2 0.173112 0.434027 0.413852
1264 4 0.177947 0.435284 0.378138
955 4 0.058114 0.483616 0.500144
954 2 0.0600949 0.509886 0.475519
1149 2 0.125367 0.539164 0.424693
1150 4 0.0972928 0.546965 0.44594
956 4 0.0620757 0.536156 0.450894
1033 4 0.186194 0.539942 0.386062
1151 4 0.153442 0.531363 0.403448
1032 2 0.215763 0.535678 0.40626
288 2 0.312457 0.506261 0.501618
290 4 0.329068 0.50922 0.469747
235 4 0.152858 0.611278 0.457416
1471 4 0.390178 0.68819 0.409651
625 4 0.46578 0.738359 0.449197
1472 4 0.432758 0.721869 0.457131
1470 2 0.411468 0.705029 0.433391
693 2 0.031183 0.802998 0.491804
694 4 0.0196719 0.812106 0.458865
1389 2 0.239415 0.833516 0.441942
439 4 0.280165 0.802985 0.447543
1390 4 0.245811 0.798037 0.442812
438 2 0.293313 0.773028 0.462714
1276 4 0.441746 0.840015 0.459724
1275 2 0.436294 0.809854 0.478724
345 2 0.168258 0.850247 0.452901
346 4 0.185683 0.881232 0.45896
1391 4 0.233018 0.868996 0.441071
59 4 0.0377661 0.348514 0.0276279
234 2 0.182804 0.605844 0.476759
142 4 0.094729 0.0836378 0.460741
1413 2 0.101062 0.0185519 0.471074
49 3 0.351459 0.170332 0.477309
141 2 0.0976141 0.100612 0.492426
440 4 0.30646 0.743073 0.477886
236 4 0.21275 0.600411 0.496101
1414 4 0.119295 0.988412 0.478787
1100 4 0.199527 0.988956 0.480787
704 4 0.357672 0.656886 0.00426553
168 2 0.145395 0.940983 0.00634487
124 4 0.0105788 0.470632 0.838005
915 2 0.00615576 0.806856 0.81573
143 4 0.100499 0.117587 0.524111
798 2 0.489335 0.571216 0.75292
847 4 0.00624298 0.124162 0.508315
604 4 0.0692064 0.136998 0.524945
47 3 0.329457 0.156777 0.524959
603 2 0.0665268 0.172908 0.526857
605 4 0.0638456 0.208819 0.528768
109 4 0.035605 0.231286 0.53303
971 4 0.184324 0.257078 0.598479
221 4 0.192848 0.255002 0.56265
220 4 0.200975 0.183341 0.563087
219 2 0.196912 0.219171 0.56287
914 4 0.493213 0.4631 0.567809
46 1 0.34732 0.179823 0.509131
48 3 0.37708 0.182659 0.52417
50 3 0.331399 0.208528 0.510284
1381 4 0.442813 0.22234 0.522907
166 4 0.120265 0.37218 0.562608
1031 4 0.221885 0.412877 0.543545
1014 2 0.269932 0.406194 0.567332
1015 4 0.242052 0.428911 0.569993
1016 4 0.297812 0.383477 0.564671
521 4 0.322785 0.386506 0.537111
1398 2 0.0373808 0.427856 0.555864
1400 4 0.0680008 0.446795 0.557901
919 4 0.155727 0.39737 0.521422
435 2 0.111396 0.454119 0.568884
437 4 0.130131 0.434772 0.592866
1030 4 0.169448 0.432808 0.588876
1029 2 0.195666 0.422843 0.56621
722 4 0.260482 0.492138 0.564135
685 4 0.0637815 0.614217 0.583255
684 2 0.0847342 0.584956 0.580971
686 4 0.105687 0.555696 0.578688
880 4 0.139547 0.554587 0.59727
606 2 0.236647 0.544576 0.521609
608 4 0.215668 0.567669 0.503525
607 4 0.257626 0.521482 0.539693
289 4 0.295846 0.503303 0.533491
927 2 0.320524 0.544174 0.58151
929 4 0.293442 0.541207 0.557883
879 2 0.168719 0.57505 0.59173
544 4 0.489313 0.34513 0.985482
300 2 0.0168027 0.965366 0.506556
207 2 0.4172 0.642882 0.567415
958 4 0.097271 0.715005 0.528723
1021 4 0.268616 0.731836 0.572634
1020 2 0.271239 0.734953 0.536804
209 4 0.436942 0.65118 0.538401
1104 2 0.427553 0.71273 0.546269
1106 4 0.430455 0.680193 0.561545
1236 2 0.0850669 0.810893 0.578057
1238 4 0.0584433 0.809371 0.553782
695 4 0.0426946 0.79389 0.524742
812 4 0.0125431 0.308153 0.643278
1022 4 0.273862 0.73807 0.500973
293 4 0.452126 0.770142 0.669461
1308 2 0.365358 0.792713 0.519111
1105 4 0.424651 0.745266 0.530993
257 4 0.433616 0.767158 0.576921
1399 4 0.00676093 0.408917 0.553827
1046 4 0.0875938 0.980835 0.544288
1057 4 0.208543 0.585267 0.978681
1237 4 0.11169 0.812417 0.602332
1044 2 0.0848168 0.946227 0.534543
1310 4 0.389658 0.800125 0.544704
1511 4 0.459229 0.901461 0.934585
1045 4 0.0820396 0.911619 0.524797
242 4 0.0150544 0.284465 0.672443
1132 4 0.197421 0.904863 0.527313
1131 2 0.190131 0.9396 0.520939
1133 4 0.182841 0.974337 0.514565
1360 4 0.170385 0.313225 0.511175
1423 4 0.443004 0.532459 0.939915
1119 2 0.489747 0.973105 0.531367
1121 4 0.461167 0.952353 0.52409
336 2 0.0821159 0.0612878 0.615676
337 4 0.052296 0.0683316 0.59666
338 4 0.111935 0.0542444 0.634691
1420 4 0.145584 0.0589912 0.6399
1419 2 0.164162 0.0282671 0.643258
1421 4 0.182741 0.997543 0.646615
52 4 0.286044 0.0920585 0.593294
1312 4 0.48146 0.0893072 0.619882
356 4 0.159518 0.182285 0.650642
354 2 0.169278 0.147809 0.646576
53 4 0.276363 0.057031 0.655591
51 2 0.281203 0.0745444 0.624442
1070 4 0.135476 0.200584 0.668748
1068 2 0.118926 0.197001 0.700586
406 4 0.273124 0.233191 0.629861
576 2 0.489108 0.254254 0.608932
577 4 0.475211 0.221011 0.610397
950 4 0.0434153 0.328994 0.65709
969 2 0.15987 0.276343 0.616681
970 4 0.135416 0.295607 0.634883
167 4 0.139086 0.319895 0.608584
630 2 0.502054 0.327013 0.654761
632 4 0.476259 0.345207 0.637326
165 2 0.129676 0.346038 0.585596
218 4 0.240771 0.378762 0.654103
217 4 0.308256 0.401625 0.642932
216 2 0.274513 0.390193 0.648517
472 4 0.316038 0.402825 0.586428
471 2 0.350041 0.409364 0.5965
436 4 0.0926607 0.473465 0.544902
11 1 0.215342 0.474731 0.667341
14 3 0.193489 0.453468 0.681133
15 3 0.226324 0.462608 0.638858
720 2 0.255465 0.493962 0.599799
1334 4 0.284803 0.478916 0.640362
721 4 0.250447 0.495786 0.635463
473 4 0.384044 0.415902 0.606572
928 4 0.347605 0.54714 0.605136
1499 4 0.425329 0.576379 0.660219
1497 2 0.413091 0.548597 0.640755
1248 2 0.0182357 0.655684 0.671409
1250 4 0.0162019 0.680401 0.697588
881 4 0.197891 0.595513 0.58619
1479 2 0.247732 0.604101 0.621668
1481 4 0.211946 0.607954 0.619443
1480 4 0.283517 0.600247 0.623893
1178 4 0.274353 0.602948 0.664351
208 4 0.397458 0.634585 0.596429
1086 2 0.421908 0.65479 0.648189
1087 4 0.396874 0.631613 0.636503
957 2 0.0921248 0.725791 0.562746
291 2 0.46546 0.737804 0.660692
1514 4 0.0324976 0.805586 0.609719
959 4 0.0869782 0.736577 0.596769
360 2 0.249782 0.814694 0.619615
361 4 0.221873 0.81291 0.642381
362 4 0.277692 0.816478 0.59685
256 4 0.457393 0.834737 0.585256
255 2 0.445505 0.800948 0.581089
1186 4 0.114475 0.843832 0.580293
1185 2 0.132599 0.868929 0.598786
1187 4 0.150724 0.894028 0.61728
889 4 0.128891 0.891871 0.647027
206 4 0.425057 0.98341 0.585586
205 4 0.436323 0.92351 0.624145
204 2 0.43069 0.95346 0.604866
815 4 0.361088 0.0290142 0.688703
813 2 0.394278 0.0411574 0.681536
432 2 0.146913 0.0863689 0.717349
921 2 0.234539 0.0153486 0.783141
533 4 0.173954 0.988249 0.67928
434 4 0.180057 0.084183 0.70331
814 4 0.427468 0.0533008 0.674369
385 4 0.454245 0.0372568 0.700122
384 2 0.462044 0.0715855 0.70794
894 2 0.0704338 0.110732 0.727617
433 4 0.113769 0.0885557 0.731388
896 4 0.0919678 0.0947718 0.703493
355 4 0.179037 0.113332 0.64251
1211 4 0.433504 0.11839 0.708549
386 4 0.469841 0.105915 0.715757
1209 2 0.441082 0.148772 0.690663
1350 2 0.0910408 0.175016 0.770246
1352 4 0.117305 0.199143 0.764908
1069 4 0.102377 0.193418 0.732425
407 4 0.216582 0.191225 0.645465
405 2 0.244853 0.212208 0.637663
1210 4 0.448661 0.179154 0.672778
240 2 0.00575439 0.279674 0.706953
948 2 0.0783655 0.335788 0.662812
241 4 0.996454 0.274883 0.741463
949 4 0.113316 0.342582 0.668533
1095 2 0.138089 0.313771 0.725756
1097 4 0.118005 0.328609 0.699739
454 4 0.331241 0.658601 0.973493
771 2 0.492602 0.272803 0.710561
773 4 0.497253 0.294744 0.682324
1040 4 0.481636 0.356355 0.725317
1038 2 0.456752 0.37653 0.708759
239 4 0.434808 0.416854 0.662668
1039 4 0.431867 0.396705 0.692202
13 3 0.240994 0.479881 0.688206
1332 2 0.319266 0.475005 0.650233
1333 4 0.35373 0.471093 0.660104
237 2 0.436082 0.44581 0.684123
650 4 0.43107 0.474434 0.741431
238 4 0.437357 0.474765 0.705578
1498 4 0.400853 0.520814 0.621293
12 3 0.20009 0.503658 0.661749
648 2 0.422544 0.495183 0.769666
1438 4 0.188275 0.556716 0.698524
1437 2 0.196272 0.581276 0.723689
1176 2 0.270973 0.601401 0.70022
1177 4 0.267593 0.599854 0.736089
1411 4 0.279262 0.623269 0.761061
778 4 0.370428 0.573916 0.725647
777 2 0.384691 0.59681 0.74958
1249 4 0.020269 0.630967 0.64523
127 4 0.281461 0.702351 0.722135
126 2 0.277566 0.720845 0.752847
510 2 0.378101 0.721811 0.754104
511 4 0.406688 0.714414 0.733403
1088 4 0.446942 0.677968 0.659873
512 4 0.349514 0.72921 0.774804
292 4 0.478793 0.705466 0.651923
799 4 0.456314 0.561541 0.763708
1512 2 0.0193433 0.786471 0.637323
481 4 0.18924 0.807606 0.658465
482 4 0.194623 0.858055 0.709724
480 2 0.191931 0.83283 0.684095
888 2 0.156452 0.915118 0.646412
1434 2 0.48178 0.877023 0.724992
171 2 0.256583 0.413108 0.995139
398 4 0.0784619 0.916836 0.702552
396 2 0.0783108 0.952895 0.70286
397 4 0.0781592 0.988955 0.703167
531 2 0.171367 0.974058 0.71233
532 4 0.16878 0.959867 0.74538
890 4 0.184014 0.938364 0.645796
923 4 0.219438 0.986072 0.797812
121 4 0.36106 0.900661 0.721784
120 2 0.383023 0.928813 0.726829
122 4 0.404986 0.956967 0.731874
1175 4 0.0114411 0.0619254 0.804982
1173 2 0.0423488 0.0805012 0.804771
1174 4 0.0732568 0.0990776 0.80456
7 3 0.163961 0.0561225 0.834314
922 4 0.249638 0.0446251 0.768469
895 4 0.0488986 0.126693 0.75174
1515 2 0.380749 0.0900763 0.812347
1517 4 0.370205 0.101422 0.844913
1351 4 0.0647768 0.150888 0.775584
1509 2 0.444288 0.913885 0.964963
415 4 0.230193 0.22388 0.845556
183 2 0.3331 0.240395 0.780379
184 4 0.361664 0.220892 0.770175
772 4 0.48795 0.250861 0.738799
1096 4 0.158172 0.298934 0.751774
1111 4 0.204108 0.233393 0.869075
185 4 0.304536 0.259898 0.790584
854 4 0.496439 0.343282 0.785748
475 4 0.30565 0.29479 0.7882
852 2 0.463784 0.328605 0.790065
1501 4 0.216815 0.408615 0.757523
1502 4 0.210648 0.440502 0.82192
1500 2 0.213732 0.424558 0.789721
476 4 0.322701 0.363599 0.774921
944 4 0.330795 0.395756 0.752706
474 2 0.314176 0.329194 0.781561
853 4 0.431127 0.31393 0.794382
286 4 0.149129 0.517286 0.78278
285 2 0.174538 0.493409 0.791988
943 4 0.300974 0.455338 0.725094
942 2 0.315885 0.425547 0.7389
287 4 0.199946 0.469532 0.801196
649 4 0.414018 0.515932 0.797901
749 4 0.0158159 0.589714 0.708439
1439 4 0.204268 0.605836 0.748854
1410 2 0.310316 0.606888 0.76929
1412 4 0.34137 0.590508 0.777519
779 4 0.398955 0.619705 0.773513
1225 4 0.473678 0.580544 0.790263
794 4 0.19912 0.643437 0.751223
793 4 0.148917 0.691428 0.731776
792 2 0.174018 0.667432 0.741499
268 4 0.283945 0.68424 0.853397
128 4 0.273671 0.739338 0.783559
85 4 0.312507 0.681547 0.835919
84 2 0.331924 0.690051 0.806747
86 4 0.351342 0.698554 0.777575
916 4 0.0348521 0.825623 0.826875
572 4 0.0566689 0.808492 0.854738
570 2 0.0693312 0.776419 0.844188
231 2 0.0375912 0.892792 0.814692
233 4 0.00500943 0.908146 0.816443
232 4 0.0701736 0.877438 0.812941
555 2 0.432262 0.888145 0.807073
1435 4 0.457197 0.856571 0.741659
557 4 0.422333 0.917852 0.789203
652 4 0.322781 0.971627 0.834021
9 3 0.194627 0.0784714 0.873026
10 3 0.173956 0.028679 0.879527
6 1 0.186564 0.0498015 0.857763
1379 4 0.207578 0.0166782 0.880993
8 3 0.213684 0.0365136 0.843346
1378 4 0.263851 0.975593 0.899619
1377 2 0.235714 0.996135 0.890306
1516 4 0.391292 0.0787305 0.779782
1510 4 0.429346 0.926309 0.99534
416 4 0.253041 0.15654 0.857597
414 2 0.241617 0.19021 0.851576
1112 4 0.195173 0.295839 0.834114
1110 2 0.19964 0.264616 0.851594
296 4 0.253482 0.289724 0.930275
162 2 0.286753 0.263531 0.877326
163 4 0.277892 0.285724 0.904333
164 4 0.295614 0.241339 0.850319
97 4 0.334255 0.287889 0.823239
96 2 0.359044 0.299053 0.846932
98 4 0.383832 0.310218 0.870624
302 4 0.041781 0.940028 0.51243
594 2 0.171724 0.352923 0.904471
595 4 0.152991 0.34709 0.874215
1469 4 0.218734 0.431318 0.860265
1467 2 0.232043 0.408054 0.884391
1468 4 0.245352 0.38479 0.908517
1081 4 0.398353 0.341548 0.884755
1080 2 0.424764 0.363212 0.89631
1082 4 0.451176 0.384875 0.907865
1477 4 0.481255 0.373559 0.890275
123 2 0.00394466 0.447367 0.864747
1424 4 0.411068 0.46907 0.927113
357 2 0.264909 0.576072 0.834023
358 4 0.252953 0.548616 0.854114
149 4 0.0145059 0.689025 0.864425
359 4 0.276866 0.603529 0.813933
267 2 0.278324 0.648621 0.853142
269 4 0.272702 0.613002 0.852886
1226 4 0.463796 0.60029 0.858923
1224 2 0.468737 0.590417 0.824594
893 4 0.0434836 0.694427 0.882661
891 2 0.0685483 0.675326 0.900193
892 4 0.0936122 0.656226 0.917726
941 4 0.118825 0.660254 0.894328
939 2 0.154677 0.65704 0.892162
571 4 0.0819953 0.744344 0.833642
1322 4 0.218245 0.681785 0.774219
1321 4 0.233992 0.714014 0.836788
1320 2 0.226118 0.697899 0.805504
1453 4 0.250343 0.734273 0.86034
1293 2 0.0300322 0.785022 0.908852
1294 4 0.0243189 0.792322 0.874002
1452 2 0.276264 0.750227 0.879678
1454 4 0.302186 0.766182 0.899016
378 2 0.437102 0.811068 0.88293
380 4 0.470714 0.799715 0.876469
1148 4 0.484994 0.783568 0.905609
797 4 0.0660334 0.843105 0.830214
795 2 0.0914565 0.855129 0.852779
796 4 0.116884 0.867156 0.875345
382 4 0.391344 0.894202 0.848718
381 2 0.35963 0.895069 0.86586
383 4 0.327916 0.895936 0.883003
379 4 0.40349 0.822421 0.88939
653 4 0.290781 0.953388 0.896029
651 2 0.306781 0.962507 0.865025
1018 4 0.0483408 0.0965063 0.986962
1017 2 0.0678751 0.0674694 0.995662
911 4 0.217536 0.138019 0.99196
333 2 0.0312097 0.235834 0.946671
334 4 0.0624251 0.250992 0.936861
133 4 0.0832593 0.232481 0.964866
294 2 0.219514 0.278045 0.927082
295 4 0.185546 0.266366 0.923889
596 4 0.190457 0.358757 0.934728
173 4 0.229459 0.421219 0.972803
545 4 0.450744 0.388938 0.943114
543 2 0.470029 0.367034 0.964298
1370 4 0.00877696 0.467601 0.98868
1422 2 0.427036 0.500764 0.933514
635 4 0.501648 0.459942 0.982067
1368 2 0.0326577 0.48958 0.972963
1369 4 0.0565395 0.511558 0.957246
1232 4 0.0604528 0.544605 0.970392
429 2 0.124005 0.543542 0.956225
430 4 0.124563 0.507724 0.960376
431 4 0.123445 0.579359 0.952073
601 4 0.155169 0.494589 0.96805
1230 2 0.0461605 0.568038 0.947003
1231 4 0.0318691 0.591471 0.923614
989 4 0.0254031 0.621417 0.944393
1010 4 0.0962547 0.58947 0.974523
940 4 0.190529 0.653826 0.889995
1085 4 0.41446 0.615771 0.930716
1083 2 0.392789 0.6385 0.948439
988 4 0.0626113 0.66444 0.988737
1084 4 0.371116 0.66123 0.966164
987 2 0.0440067 0.642929 0.966565
170 4 0.15996 0.97333 0.999872
1241 4 0.351524 0.222529 0.991658
81 2 0.221775 0.681257 0.929331
83 4 0.218195 0.648919 0.944883
82 4 0.225355 0.713595 0.913779
556 4 0.442191 0.858438 0.824942
341 4 0.0220833 0.88936 0.994209
1295 4 0.0357461 0.777722 0.943702
340 4 0.0224932 0.819117 0.977856
339 2 0.0222884 0.854239 0.986032
132 2 0.0961006 0.216078 0.994303
154 4 0.0206155 0.269647 0.986842
909 2 0.239283 0.109718 0.997108
600 2 0.17813 0.499597 0.995401
157 4 0.269552 0.100879 0.513347
1359 2 0.135184 0.320542 0.513961
1361 4 0.0999837 0.32786 0.516747
519 2 0.333131 0.384261 0.502639
569 4 0.023529 0.486996 0.501409
713 4 0.521346 0.0103508 0.0174641
711 2 0.50256 0.0210295 0.0463343
1103 4 0.658422 0.0995927 0.113432
610 4 0.802827 0.102687 0.0816545
609 2 0.827147 0.119184 0.0607521
1246 4 0.909429 0.981893 0.0544817
1247 4 0.93584 0.0321075 0.0990081
1245 2 0.922634 0.0070002 0.0767449
611 4 0.851466 0.135679 0.0398508
106 4 0.00197068 0.398749 0.0818265
1171 4 0.626053 0.227841 0.0167054
877 4 0.00237942 0.0540154 0.106013
567 2 0.998925 0.462761 0.491029
833 4 0.507502 0.813612 0.372465
203 4 0.838348 0.199309 0.00107004
1507 4 0.94089 0.217241 0.112095
1506 2 0.939624 0.243415 0.0873213
370 4 0.556359 0.28876 0.00138845
735 2 0.873889 0.296475 0.0705231
737 4 0.904317 0.281391 0.0583959
140 4 0.832336 0.361779 0.0404304
138 2 0.835151 0.39676 0.0321338
736 4 0.843463 0.31156 0.0826507
502 4 0.681633 0.968644 0.443306
1063 4 0.905735 0.894362 0.489341
536 4 0.616459 0.475913 0.0941238
1292 4 0.539546 0.360983 0.404293
458 4 0.735683 0.458826 0.000642555
1338 2 0.836273 0.478244 0.0154303
1339 4 0.821483 0.458661 0.0418543
139 4 0.837967 0.43174 0.0238367
179 4 0.758862 0.505456 0.0869566
38 3 0.727057 0.521939 0.0865928
1451 4 0.509877 0.678581 0.188424
73 4 0.532539 0.570542 0.131765
391 4 0.873503 0.567924 0.0499713
67 4 0.877829 0.538571 0.0711222
390 2 0.89831 0.574285 0.0245843
1035 2 0.748736 0.587178 0.0359752
1036 4 0.751103 0.601282 0.00287095
760 4 0.752729 0.628589 0.0312246
759 2 0.748111 0.664345 0.0320025
187 4 0.75463 0.639136 0.488996
1371 2 0.992401 0.635685 0.0731527
1372 4 0.971155 0.634898 0.0440269
1337 4 0.945446 0.660182 0.037381
274 4 0.784908 0.881414 0.0280367
761 4 0.743493 0.7001 0.0327802
697 4 0.714106 0.709149 0.0693759
1217 4 0.518762 0.359248 0.448501
997 4 0.848476 0.753193 0.0128519
862 4 0.832895 0.753216 0.142144
767 4 0.548349 0.91726 0.0168444
765 2 0.550824 0.95323 0.0175017
766 4 0.553298 0.989201 0.0181584
150 2 0.757535 0.0872833 0.184955
152 4 0.775351 0.0581982 0.196662
591 2 0.966941 0.992328 0.157252
592 4 0.985133 0.975636 0.130967
1194 2 0.542914 0.13303 0.125177
1196 4 0.549391 0.156709 0.098761
1102 4 0.620958 0.0620264 0.0645783
1101 2 0.63969 0.0808098 0.0890055
279 2 0.677041 0.104912 0.161937
281 4 0.680855 0.117221 0.128256
280 4 0.673229 0.0926043 0.195618
870 2 0.79931 0.264905 0.149786
872 4 0.781045 0.270171 0.119141
523 4 0.768568 0.337674 0.0957523
522 2 0.772734 0.302331 0.0899277
524 4 0.776902 0.266988 0.0841042
1508 4 0.938358 0.269589 0.0625478
515 4 0.980299 0.295054 0.182074
1090 4 0.560241 0.38372 0.0800277
1267 4 0.758217 0.37243 0.104017
1266 2 0.72331 0.380722 0.100392
1268 4 0.688402 0.389013 0.0967671
626 4 0.531446 0.714976 0.467713