ITEM: TIMESTEP
1514500
ITEM: NUMBER OF ATOMS
1520
ITEM: BOX BOUNDS pp pp pp
-6.9326749999999997e+00 6.9326749999999997e+00
-6.9326749999999997e+00 6.9326749999999997e+00
-6.9326749999999997e+00 6.9326749999999997e+00
ITEM: ATOMS id type xs ys zs
623 4 0.0201694 0.0583036 0.0553025
1462 4 0.131339 0.0763135 0.0896093
1461 2 0.111252 0.0475429 0.0812937
1463 4 0.0911648 0.0187729 0.0729788
613 4 0.401396 0.997259 0.0529651
631 4 0.434903 0.0197653 0.00479016
621 2 0.033876 0.0830763 0.0776372
486 2 0.0605598 0.15561 0.0394934
488 4 0.0717449 0.122712 0.0491429
530 4 0.156558 0.186873 0.0253615
955 4 0.176437 0.132169 0.0649554
954 2 0.201664 0.108385 0.0748713
487 4 0.0493749 0.188506 0.0298444
848 4 0.123784 0.239372 0.010921
528 2 0.184943 0.187466 0.047596
529 4 0.213328 0.188059 0.0698304
799 4 0.245242 0.18721 0.0567283
798 2 0.26781 0.208568 0.0384275
800 4 0.290378 0.229926 0.0201253
112 4 0.487318 0.72349 0.0976365
1262 4 0.419975 0.25641 0.048361
1245 2 0.025837 0.247931 0.0548021
168 2 0.10044 0.988358 0.447622
1247 4 0.053586 0.240384 0.0330436
846 2 0.098676 0.26525 0.0103621
344 4 0.291173 0.264779 0.00235318
1260 2 0.440313 0.2857 0.0537384
1261 4 0.460651 0.314989 0.0591161
875 4 0.298665 0.421538 0.0548595
873 2 0.318046 0.410728 0.0832832
448 4 0.0841677 0.468129 0.0335559
447 2 0.0925853 0.49874 0.016452
673 4 0.300983 0.411223 0.0211473
1195 4 0.357387 0.59642 0.0528233
1194 2 0.350121 0.603498 0.0182182
234 2 0.45757 0.658082 0.0508069
236 4 0.424118 0.656528 0.0641846
1177 4 0.0702373 0.725115 0.0195512
1388 4 0.193226 0.73792 0.0797339
1178 4 0.0211096 0.777874 0.0174235
1176 2 0.0456734 0.751494 0.0184871
1386 2 0.186152 0.768823 0.0625466
1387 4 0.179078 0.799726 0.0453593
1015 4 0.290251 0.791057 0.0115113
548 4 0.30571 0.809427 0.0366851
546 2 0.283955 0.808014 0.0654102
1439 4 0.0739149 0.895524 0.0920737
1437 2 0.0469538 0.913135 0.0758447
965 4 0.233932 0.91291 0.0226917
1438 4 0.0199927 0.930746 0.0596165
963 2 0.244625 0.926503 0.054335
964 4 0.255317 0.940095 0.0859782
13 3 0.0326729 0.0141726 0.149868
956 4 0.22689 0.0845991 0.0847879
1054 4 0.233255 0.0829552 0.122054
1053 2 0.245046 0.0488886 0.123007
1055 4 0.256835 0.014823 0.123959
779 4 0.285548 0.0022997 0.147414
612 2 0.405196 0.00202899 0.0885063
1120 4 0.32406 0.0648563 0.147043
255 2 0.39738 0.0421015 0.158823
614 4 0.408996 0.00679976 0.124049
256 4 0.377197 0.0189741 0.139897
410 4 0.473375 0.037297 0.131166
408 2 0.491299 0.0660521 0.143507
622 4 0.0475823 0.107849 0.0999717
205 4 0.119623 0.131376 0.109221
204 2 0.138463 0.162124 0.109154
625 4 0.15334 0.0931073 0.165958
1119 2 0.316856 0.0866694 0.119245
1121 4 0.309651 0.108481 0.0914469
1093 4 0.397562 0.14577 0.153029
206 4 0.157303 0.192873 0.109087
1509 2 0.144147 0.33085 0.161635
1510 4 0.176965 0.317406 0.155106
1435 4 0.207009 0.300863 0.152961
368 4 0.413191 0.349952 0.106976
514 4 0.438204 0.323083 0.0995866
9 3 0.188887 0.396593 0.151129
367 4 0.345573 0.369446 0.0911824
874 4 0.337428 0.399916 0.111706
366 2 0.379382 0.359699 0.0990791
513 2 0.459508 0.347077 0.116046
515 4 0.480812 0.371069 0.132504
1278 2 0.137469 0.492662 0.155887
1280 4 0.166994 0.475673 0.144055
1173 2 0.24416 0.469245 0.134909
1174 4 0.226649 0.468292 0.166419
1175 4 0.261671 0.470198 0.103399
970 4 0.0138253 0.567077 0.100393
463 4 0.341964 0.572401 0.139084
1022 4 0.349207 0.535851 0.144191
969 2 0.0289961 0.598764 0.108527
971 4 0.0441662 0.630452 0.116661
400 4 0.0195702 0.641855 0.142391
462 2 0.351346 0.593951 0.111734
464 4 0.360728 0.615499 0.0843832
496 4 0.13523 0.81115 0.490594
494 4 0.0123099 0.736595 0.180636
399 2 0.00923494 0.670595 0.161565
1315 4 0.191548 0.673047 0.165254
1314 2 0.189253 0.696603 0.138046
1316 4 0.186958 0.72016 0.110839
412 4 0.00712075 0.825497 0.106487
411 2 0.0265529 0.802034 0.0871919
413 4 0.0459853 0.778571 0.0678978
1153 4 0.231072 0.824218 0.101401
547 4 0.262201 0.806599 0.0941355
97 4 0.32055 0.757002 0.159858
41 1 0.290864 0.788655 0.147078
43 3 0.294148 0.757144 0.136299
44 3 0.318739 0.798282 0.162896
42 3 0.285979 0.808481 0.12093
1294 4 0.31881 0.815552 0.13172
170 4 0.109366 0.960483 0.426559
1152 2 0.207001 0.848488 0.112887
1154 4 0.182929 0.872759 0.124372
1293 2 0.347885 0.834413 0.121755
1295 4 0.376961 0.853274 0.11179
701 4 0.414166 0.85468 0.118435
699 2 0.449597 0.852171 0.112204
700 4 0.485026 0.849661 0.105974
15 3 0.019912 0.96213 0.158669
1392 2 0.477383 0.97624 0.101348
1394 4 0.485854 0.949567 0.0786064
1393 4 0.468911 0.00291357 0.124089
83 4 0.0328914 0.0361595 0.220039
81 2 0.00348821 0.0548021 0.229437
1072 4 0.184834 0.985074 0.250287
777 2 0.295928 0.0197321 0.177227
778 4 0.306308 0.0371646 0.207039
59 4 0.402269 0.076871 0.209393
257 4 0.417562 0.0652288 0.17775
57 2 0.424268 0.0643651 0.235085
224 4 0.0545364 0.152423 0.230003
222 2 0.0849075 0.157983 0.211373
626 4 0.171127 0.132471 0.223714
624 2 0.162234 0.112789 0.194836
137 4 0.310009 0.106822 0.256095
1345 4 0.479378 0.103959 0.178794
1344 2 0.446767 0.119189 0.181022
1346 4 0.414156 0.13442 0.183251
223 4 0.115279 0.163545 0.192743
1192 4 0.24188 0.165369 0.185572
1191 2 0.214318 0.18478 0.198375
1193 4 0.186755 0.204192 0.211176
1444 4 0.277341 0.255198 0.264394
1094 4 0.353335 0.187756 0.191536
1092 2 0.375449 0.166764 0.172283
1434 2 0.224509 0.286231 0.18089
1445 4 0.243243 0.236354 0.203698
1436 4 0.24201 0.2716 0.20882
1443 2 0.260292 0.245776 0.234046
727 4 0.0557381 0.39049 0.184491
532 4 0.0263527 0.409243 0.199374
1511 4 0.111328 0.344293 0.168164
8 3 0.163585 0.409352 0.198049
728 4 0.125051 0.409469 0.190596
726 2 0.0903945 0.39998 0.187544
10 3 0.214689 0.390997 0.198582
767 4 0.204406 0.424752 0.222906
6 1 0.192906 0.409071 0.18192
1090 4 0.434391 0.414433 0.202891
132 2 0.489709 0.414044 0.209131
531 2 0.0181198 0.44349 0.207111
1265 4 0.0387426 0.50212 0.213734
533 4 0.00988778 0.477735 0.214847
7 3 0.204113 0.440202 0.179499
1519 4 0.280796 0.451898 0.202064
1518 2 0.315548 0.442296 0.202787
1520 4 0.3503 0.432695 0.203511
1089 2 0.400983 0.414169 0.216466
1091 4 0.367575 0.413906 0.23004
259 4 0.411649 0.504729 0.234424
134 4 0.462571 0.43669 0.201991
1263 2 0.0692888 0.51943 0.205505
872 4 0.12306 0.539629 0.225982
1279 4 0.107942 0.509651 0.167719
1027 4 0.152636 0.519503 0.226006
1264 4 0.0998352 0.536739 0.197276
870 2 0.137927 0.571933 0.219995
1020 2 0.364073 0.526047 0.175549
1021 4 0.378939 0.516244 0.206908
1150 4 0.3268 0.499267 0.261277
1179 2 0.386036 0.572111 0.24966
1180 4 0.386492 0.536258 0.245811
1141 4 0.104111 0.651464 0.198957
1513 4 0.147549 0.633614 0.230451
871 4 0.152795 0.604236 0.214008
1512 2 0.175906 0.654337 0.238626
1181 4 0.38558 0.607963 0.253508
314 4 0.365269 0.60254 0.217836
312 2 0.355056 0.635991 0.209059
210 2 0.203861 0.843355 0.495335
1142 4 0.066991 0.706597 0.226958
492 2 0.0226779 0.759409 0.206568
1140 2 0.0855513 0.67903 0.212957
1514 4 0.204263 0.67506 0.246802
96 2 0.325171 0.728739 0.181772
98 4 0.329793 0.700477 0.203687
313 4 0.344844 0.669444 0.200282
493 4 0.0330449 0.782222 0.2325
465 2 0.159883 0.80472 0.200357
466 4 0.167852 0.769622 0.202614
862 4 0.18871 0.754883 0.174606
861 2 0.223504 0.760838 0.181976
863 4 0.258299 0.766792 0.189346
45 3 0.265119 0.790942 0.167346
1356 2 0.498103 0.796955 0.204434
1357 4 0.480837 0.799717 0.172896
332 4 0.0211812 0.897078 0.207091
467 4 0.151913 0.839816 0.198099
14 3 0.0446439 0.990482 0.197826
11 1 0.0226835 0.991743 0.172606
331 4 0.00763874 0.937929 0.264965
330 2 0.0144092 0.917504 0.236028
1071 2 0.151165 0.973907 0.243794
1507 4 0.0883113 0.0407274 0.258381
1375 4 0.081394 0.00595258 0.250223
744 2 0.372875 0.83636 0.458449
1506 2 0.0978236 0.0430096 0.29309
1508 4 0.107337 0.0452908 0.327799
58 4 0.44627 0.0518595 0.260776
135 2 0.286562 0.110671 0.283221
136 4 0.263115 0.114521 0.310347
277 4 0.460951 0.0961601 0.327941
1442 4 0.0569596 0.189547 0.241458
1440 2 0.0602162 0.219314 0.261551
805 4 0.347936 0.202796 0.274484
804 2 0.330243 0.232239 0.263507
17 3 0.410965 0.244689 0.311673
19 3 0.409269 0.1921 0.324712
1441 4 0.0634723 0.249081 0.281644
574 4 0.0574639 0.275944 0.255912
573 2 0.0358562 0.303784 0.263557
806 4 0.31255 0.261682 0.25253
575 4 0.014249 0.331625 0.271203
231 2 0.148787 0.399932 0.311819
232 4 0.114725 0.409593 0.318658
765 2 0.21381 0.408263 0.253568
233 4 0.182851 0.39027 0.304981
766 4 0.223213 0.391774 0.284229
1028 4 0.126851 0.465782 0.266637
962 4 0.235379 0.451253 0.287409
960 2 0.21296 0.479199 0.291515
258 2 0.435196 0.491138 0.258117
260 4 0.458741 0.477547 0.281809
1484 4 0.429567 0.482174 0.3073
1026 2 0.139743 0.492643 0.246321
961 4 0.190541 0.507145 0.295622
784 4 0.145352 0.586965 0.338527
944 4 0.251728 0.569596 0.309147
1149 2 0.327967 0.499976 0.297313
1151 4 0.329134 0.500686 0.333348
942 2 0.272079 0.546139 0.327478
943 4 0.29243 0.522682 0.345809
1404 2 0.497183 0.571985 0.259966
1405 4 0.463769 0.584983 0.256086
1010 4 0.0337639 0.66189 0.343045
1008 2 0.01507 0.633483 0.331046
578 4 0.256377 0.582139 0.270644
576 2 0.289233 0.595146 0.26345
577 4 0.322089 0.608154 0.256256
1321 4 0.472925 0.595459 0.332343
502 4 0.477141 0.616981 0.30087
501 2 0.449953 0.632099 0.28263
503 4 0.422766 0.647217 0.26439
1238 4 0.412882 0.726345 0.323513
1324 4 0.109011 0.808522 0.30687
1323 2 0.120002 0.842697 0.303455
1325 4 0.130993 0.876873 0.30004
927 2 0.4214 0.885198 0.324439
928 4 0.452601 0.883803 0.306413
1376 4 0.031044 0.963711 0.279925
1374 2 0.0562189 0.984832 0.265074
1073 4 0.117496 0.962741 0.2373
1351 4 0.0618339 0.0355077 0.376324
1350 2 0.0942963 0.0488108 0.384668
987 2 0.0786952 0.129819 0.383876
989 4 0.105185 0.119494 0.361691
1304 4 0.0388298 0.171852 0.417841
1352 4 0.126759 0.0621146 0.393011
845 4 0.223348 0.1472 0.3757
843 2 0.257917 0.156638 0.371663
276 2 0.494028 0.084416 0.336216
363 2 0.00883684 0.192519 0.361055
364 4 0.0237856 0.200014 0.393004
1310 4 0.0850394 0.178905 0.408592
1145 4 0.152823 0.223037 0.363397
1143 2 0.184065 0.240993 0.364786
1144 4 0.215306 0.25895 0.366176
844 4 0.292487 0.166074 0.367626
991 4 0.329377 0.25849 0.434716
18 3 0.367799 0.225333 0.338139
20 3 0.415763 0.229859 0.363194
16 1 0.400999 0.222958 0.334676
1102 4 0.204718 0.26454 0.405453
990 2 0.337974 0.275087 0.403877
207 2 0.379132 0.318194 0.352759
208 4 0.346927 0.320115 0.336651
992 4 0.34657 0.291684 0.373038
209 4 0.411339 0.316273 0.368868
786 2 0.132406 0.413068 0.386499
787 4 0.134667 0.416798 0.350702
507 2 0.21493 0.360351 0.362334
509 4 0.222986 0.35782 0.397393
508 4 0.206872 0.362882 0.327275
348 2 0.381371 0.39705 0.372155
349 4 0.346858 0.397649 0.382591
290 4 0.484501 0.41485 0.375847
242 4 0.0285154 0.476778 0.385437
350 4 0.415884 0.396451 0.361719
1482 2 0.422706 0.458218 0.333366
1483 4 0.415845 0.434262 0.359433
240 2 0.00953675 0.503531 0.370454
103 4 0.162371 0.873153 0.433366
785 4 0.205125 0.567822 0.374058
783 2 0.175238 0.577393 0.356293
716 4 0.353262 0.543905 0.409117
1320 2 0.494851 0.580429 0.35671
104 4 0.20945 0.826436 0.405028
491 4 0.224731 0.789001 0.401812
545 4 0.249566 0.816641 0.412118
544 4 0.311387 0.80701 0.37624
543 2 0.280478 0.811826 0.39418
1237 4 0.39354 0.788059 0.355435
1236 2 0.403211 0.757202 0.339475
102 2 0.185909 0.849796 0.419196
929 4 0.390199 0.886592 0.342466
417 2 0.437226 0.840458 0.410663
418 4 0.470647 0.853949 0.411891
445 4 0.497268 0.879622 0.395659
481 4 0.187829 0.978287 0.412045
482 4 0.171678 0.963092 0.343417
480 2 0.179754 0.970689 0.377731
1490 4 0.480364 0.995339 0.324922
1489 4 0.436659 0.938058 0.328131
1488 2 0.458512 0.966699 0.326527
281 4 0.0646966 0.0203499 0.492307
169 4 0.0915152 0.0162344 0.468686
279 2 0.0739634 0.0545991 0.498754
72 2 0.395708 0.00939488 0.451453
74 4 0.36022 0.0153878 0.449186
73 4 0.431195 0.00340233 0.453721
746 4 0.373622 0.832972 0.494343
1302 2 0.0168674 0.163587 0.445223
988 4 0.0522052 0.140144 0.40606
419 4 0.403809 0.826967 0.409437
664 4 0.481229 0.160676 0.469452
1309 4 0.0600125 0.240242 0.437106
1308 2 0.0725263 0.209574 0.422849
1471 4 0.243312 0.220962 0.433704
1470 2 0.270448 0.242839 0.442946
1472 4 0.297585 0.264717 0.452187
1103 4 0.202359 0.331994 0.430873
1101 2 0.203539 0.298267 0.418163
829 4 0.228357 0.32272 0.477478
905 4 0.405761 0.288518 0.489616
903 2 0.395082 0.316597 0.469669
904 4 0.384402 0.344677 0.449722
788 4 0.130144 0.409337 0.422295
1334 4 0.199578 0.473455 0.407513
1332 2 0.230398 0.481191 0.424562
1333 4 0.26122 0.488926 0.44161
283 4 0.297539 0.487018 0.448114
282 2 0.328749 0.503692 0.441162
284 4 0.35996 0.520365 0.43421
714 2 0.382627 0.563742 0.415789
715 4 0.411994 0.583581 0.422459
1493 4 0.0206975 0.609265 0.404948
996 2 0.292844 0.610431 0.496568
997 4 0.32155 0.626162 0.481439
1048 4 0.349428 0.642442 0.469213
1047 2 0.352081 0.671641 0.490208
703 4 0.495728 0.695795 0.499006
490 4 0.206504 0.776152 0.470399
211 4 0.211327 0.810109 0.483529
489 2 0.215617 0.782576 0.436105
745 4 0.372128 0.839748 0.422555
833 4 0.0805747 0.891457 0.460168
832 4 0.0170449 0.873519 0.431121
831 2 0.0488089 0.882488 0.445644
985 4 0.164893 0.912477 0.448569
986 4 0.0944498 0.908188 0.433704
984 2 0.129672 0.910332 0.441137
235 4 0.491022 0.659638 0.0374294
655 4 0.497759 0.257375 0.33564
288 2 0.499832 0.400224 0.405027
1491 2 0.00222439 0.58104 0.392201
542 4 0.00557241 0.956444 0.347972
1330 4 0.00306887 0.0554254 0.463738
847 4 0.0735682 0.291128 0.00980335
342 2 0.306754 0.297287 0.00143914
343 4 0.322336 0.329796 0.000524857
671 4 0.0553078 0.032331 0.570541
648 2 0.112518 0.0222218 0.574563
650 4 0.141374 0.0335602 0.592979
649 4 0.0836611 0.0108832 0.556147
142 4 0.0101539 0.113945 0.514407
141 2 0.0375537 0.115794 0.53778
143 4 0.0649531 0.117642 0.561151
1097 4 0.239021 0.128393 0.596616
1095 2 0.254229 0.153616 0.57581
554 4 0.0614741 0.20256 0.578842
115 4 0.20721 0.228841 0.572918
1096 4 0.269437 0.178839 0.555003
894 2 0.356012 0.177122 0.576408
896 4 0.378805 0.203868 0.568311
114 2 0.228068 0.258154 0.570466
826 4 0.169164 0.340894 0.580256
116 4 0.248934 0.287479 0.568013
825 2 0.204052 0.332032 0.582434
830 4 0.251285 0.322104 0.54587
828 2 0.239819 0.322413 0.511668
667 4 0.278227 0.314669 0.575413
666 2 0.304134 0.298855 0.555899
668 4 0.330022 0.283051 0.536395
1023 2 0.130556 0.365187 0.537452
1024 4 0.100454 0.382836 0.528349
1025 4 0.160656 0.347538 0.546556
270 2 0.257691 0.38711 0.563184
272 4 0.263649 0.352358 0.570819
161 4 0.30105 0.346769 0.585571
1348 4 0.364596 0.413957 0.51077
1347 2 0.393984 0.401059 0.527215
1349 4 0.423371 0.388161 0.54366
1127 4 0.220402 0.441462 0.557294
1125 2 0.214005 0.469308 0.53529
1126 4 0.207607 0.497154 0.513287
271 4 0.251736 0.421847 0.555553
248 4 0.227758 0.52588 0.527976
246 2 0.231926 0.561654 0.529797
1277 4 0.396643 0.597758 0.576674
1159 4 0.0913155 0.588358 0.509344
1158 2 0.103717 0.609069 0.536134
1160 4 0.116119 0.62978 0.562922
247 4 0.236093 0.597427 0.53162
998 4 0.264139 0.5947 0.511698
497 4 0.173293 0.763084 0.528576
1104 2 0.220772 0.724233 0.530569
1105 4 0.231923 0.689955 0.531609
336 2 0.248447 0.655106 0.572257
337 4 0.259652 0.672378 0.54265
1049 4 0.354735 0.70084 0.511203
993 2 0.459517 0.715066 0.539673
994 4 0.461766 0.702629 0.505899
995 4 0.457269 0.727503 0.573447
758 4 0.425138 0.740891 0.565502
696 2 0.0327218 0.81232 0.554508
697 4 0.0556438 0.79944 0.579187
698 4 0.00979909 0.8252 0.529829
824 4 0.00846971 0.309 0.691559
495 2 0.154262 0.787117 0.509585
1106 4 0.20962 0.75851 0.52953
869 4 0.152371 0.933623 0.917892
201 2 0.141995 0.892859 0.567313
212 4 0.196395 0.876601 0.507142
584 4 0.230606 0.884846 0.505488
202 4 0.15076 0.87352 0.538166
583 4 0.293711 0.883139 0.540365
582 2 0.262158 0.883993 0.522927
70 4 0.308327 0.915912 0.574634
1218 2 0.342145 0.851411 0.529141
1219 4 0.33854 0.883956 0.544246
1220 4 0.34575 0.818865 0.514034
69 2 0.301122 0.946405 0.556783
1135 4 0.288161 0.0082582 0.557171
71 4 0.293916 0.9769 0.538932
1389 2 0.384474 0.928816 0.550526
1391 4 0.34842 0.929139 0.5512
1390 4 0.420528 0.928492 0.549851
1109 4 0.425614 0.961692 0.560107
1107 2 0.44767 0.981136 0.580982
669 2 0.0472562 0.0586433 0.59385
670 4 0.0392052 0.0849552 0.617158
118 4 0.172496 0.0312948 0.650894
117 2 0.189839 0.00457492 0.633992
1136 4 0.239776 0.996793 0.609413
1134 2 0.263968 0.00252662 0.583292
184 4 0.445029 0.00319884 0.627472
183 2 0.436741 0.0369314 0.637158
983 4 0.0263211 0.0823216 0.650664
981 2 0.0532626 0.105354 0.657304
380 4 0.101465 0.175153 0.644382
379 4 0.129421 0.14054 0.587618
305 4 0.103876 0.162565 0.681875
378 2 0.115443 0.157847 0.616
1076 4 0.290721 0.112736 0.659694
1074 2 0.29432 0.14627 0.646927
552 2 0.048533 0.204358 0.612453
553 4 0.0355914 0.206156 0.646064
982 4 0.0802043 0.128387 0.663944
1075 4 0.29792 0.179803 0.634161
895 4 0.333219 0.150377 0.584505
827 4 0.23896 0.323162 0.584608
679 4 0.290158 0.261982 0.662493
680 4 0.259943 0.296312 0.606707
678 2 0.275052 0.279145 0.634606
818 4 0.051682 0.340818 0.621912
1258 4 0.269063 0.336486 0.6084
1257 2 0.26883 0.356503 0.638413
1259 4 0.268596 0.376517 0.668409
159 2 0.331069 0.366487 0.588903
864 2 0.409994 0.385386 0.632836
160 4 0.361078 0.386203 0.592233
866 4 0.382781 0.373405 0.612434
865 4 0.437207 0.397366 0.65324
979 4 0.0570503 0.481471 0.629728
978 2 0.0884503 0.476667 0.646798
980 4 0.119849 0.471862 0.663868
1200 2 0.163857 0.470963 0.620438
1202 4 0.14703 0.459781 0.650308
1201 4 0.180685 0.482145 0.590569
1276 4 0.403853 0.526182 0.57153
1275 2 0.400248 0.56197 0.574102
562 4 0.105584 0.637549 0.59461
56 4 0.18506 0.598955 0.683607
194 4 0.206742 0.588372 0.658149
192 2 0.204994 0.615976 0.635012
193 4 0.203247 0.64358 0.611875
338 4 0.237242 0.637835 0.601863
772 4 0.476811 0.619427 0.610083
561 2 0.104396 0.667245 0.615034
563 4 0.103207 0.69694 0.635459
1383 2 0.0667769 0.799192 0.625141
1385 4 0.0757451 0.768448 0.608565
1384 4 0.0578069 0.829937 0.641718
756 2 0.41794 0.763157 0.592939
1018 4 0.405926 0.810059 0.647825
757 4 0.410743 0.785423 0.620377
1339 4 0.110437 0.902481 0.621704
1338 2 0.0873493 0.914722 0.646554
203 4 0.133231 0.912199 0.596461
1017 2 0.417803 0.842208 0.659043
1340 4 0.0642602 0.926963 0.671403
119 4 0.207182 0.977855 0.617089
1241 4 0.244378 0.999695 0.660809
238 4 0.363623 0.945476 0.651545
1108 4 0.469728 0.000580488 0.601857
225 2 0.217702 0.995238 0.74747
1239 2 0.267321 0.0234044 0.675367
1240 4 0.290264 0.0471136 0.689925
835 4 0.300022 0.0547869 0.725891
834 2 0.331119 0.049052 0.743224
185 4 0.428453 0.0706642 0.646845
303 2 0.134964 0.164196 0.700076
304 4 0.166053 0.165826 0.718275
813 2 0.214978 0.132864 0.684108
814 4 0.2474 0.128118 0.669051
815 4 0.182556 0.13761 0.699166
1343 4 0.370222 0.152782 0.677421
1342 4 0.382355 0.113481 0.736664
1341 2 0.376289 0.133131 0.707042
88 4 0.40175 0.0954925 0.71816
87 2 0.417815 0.082459 0.747698
335 4 0.0206151 0.215783 0.683072
333 2 0.0287238 0.250545 0.688191
694 4 0.157508 0.236526 0.698499
291 2 0.216548 0.212288 0.751964
292 4 0.248174 0.218479 0.735781
1414 4 0.473933 0.222325 0.6918
1413 2 0.459517 0.24456 0.716257
334 4 0.0368321 0.285308 0.693309
693 2 0.162718 0.267279 0.716595
695 4 0.167929 0.298033 0.734692
940 4 0.308716 0.277735 0.688977
939 2 0.327802 0.283161 0.719088
941 4 0.346888 0.288587 0.7492
1000 4 0.409709 0.279308 0.73953
1415 4 0.445102 0.266798 0.740713
475 4 0.283578 0.398003 0.692012
49 3 0.11908 0.487187 0.695462
50 3 0.12537 0.483751 0.749289
474 2 0.293824 0.42847 0.708358
476 4 0.30407 0.458938 0.724704
48 3 0.0893363 0.518871 0.728866
55 4 0.169883 0.529571 0.696143
47 3 0.142535 0.527512 0.723068
46 1 0.119034 0.504129 0.72432
54 2 0.177472 0.564263 0.689874
144 2 0.16834 0.654264 0.747941
1244 4 0.360326 0.656162 0.723446
86 4 0.223973 0.68515 0.717915
84 2 0.233035 0.719275 0.710583
146 4 0.193917 0.66823 0.726701
1232 4 0.0436584 0.837213 0.676239
1230 2 0.0158479 0.81426 0.676612
604 4 0.119169 0.749602 0.741638
85 4 0.242097 0.7534 0.703251
1019 4 0.42968 0.874356 0.67026
250 4 0.0706605 0.931426 0.703455
249 2 0.0665998 0.936344 0.738947
226 4 0.245894 0.98885 0.72591
966 2 0.308789 0.974626 0.729707
968 4 0.275493 0.967298 0.741459
239 4 0.374639 0.996956 0.70084
967 4 0.342085 0.981955 0.717955
237 2 0.369131 0.971216 0.676193
436 4 0.446391 0.926165 0.77952
722 4 0.0893128 0.0346572 0.777866
720 2 0.0681201 0.00554675 0.779835
302 4 0.125848 0.0490242 0.795025
300 2 0.132816 0.0433434 0.829948
227 4 0.189511 0.00162511 0.76903
836 4 0.362217 0.0433181 0.760557
518 4 0.43954 0.0291693 0.787352
516 2 0.420826 0.0431917 0.814802
789 2 0.035528 0.125824 0.800755
791 4 0.0110039 0.126795 0.774334
950 4 0.419898 0.0849971 0.835382
89 4 0.433879 0.0694249 0.777235
51 2 0.0832066 0.228489 0.782146
52 4 0.0546966 0.206453 0.780725
881 4 0.0275026 0.210618 0.80894
879 2 0.00118904 0.235247 0.810118
293 4 0.184922 0.206097 0.768146
1281 2 0.398814 0.212721 0.770238
1283 4 0.407517 0.240729 0.79122
1282 4 0.390111 0.184713 0.749257
1115 4 0.356498 0.201304 0.802726
53 4 0.111716 0.250526 0.783567
30 3 0.168523 0.327555 0.8035
27 3 0.183974 0.332915 0.752218
999 2 0.399432 0.301151 0.76632
1001 4 0.389155 0.322994 0.793109
850 4 0.166409 0.404697 0.795149
26 1 0.179481 0.348815 0.780988
29 3 0.157046 0.373231 0.776466
28 3 0.208698 0.361825 0.790837
1255 4 0.138476 0.959481 0.945701
1397 4 0.0292436 0.472554 0.779913
1395 2 0.0615857 0.473672 0.764001
427 4 0.0365503 0.501199 0.80486
1396 4 0.0939268 0.474791 0.748091
849 2 0.141118 0.422855 0.776955
851 4 0.115826 0.441015 0.758761
692 4 0.368198 0.487247 0.770968
690 2 0.395296 0.470609 0.787977
691 4 0.422394 0.45397 0.804986
933 2 0.483179 0.442505 0.795415
935 4 0.458799 0.45656 0.817965
179 4 0.195572 0.561928 0.821677
1224 2 0.405354 0.598623 0.83114
797 4 0.0860195 0.65816 0.802734
795 2 0.110396 0.632329 0.796492
796 4 0.134774 0.6065 0.790249
145 4 0.142762 0.640299 0.769183
178 4 0.171832 0.623078 0.791697
177 2 0.183703 0.592503 0.806687
1226 4 0.41558 0.616294 0.801415
1243 4 0.38997 0.620949 0.778969
1242 2 0.375147 0.638555 0.751208
1306 4 0.0688509 0.73957 0.818494
1305 2 0.0352893 0.749746 0.810099
605 4 0.0930237 0.766142 0.806788
603 2 0.106097 0.757872 0.774213
129 2 0.346535 0.830308 0.816768
131 4 0.358873 0.804096 0.838241
919 4 0.384815 0.783787 0.83691
920 4 0.452141 0.767368 0.816932
918 2 0.418478 0.775577 0.826921
130 4 0.334195 0.856519 0.795296
126 2 0.355642 0.909165 0.817358
127 4 0.347426 0.890176 0.787822
751 4 0.429853 0.885462 0.768976
752 4 0.494358 0.856182 0.782513
750 2 0.462106 0.870823 0.775745
251 4 0.0625397 0.941265 0.774441
606 2 0.00886137 0.958464 0.812169
608 4 0.0120647 0.967229 0.777336
721 4 0.0469272 0.976435 0.781804
128 4 0.363856 0.928154 0.846893
435 2 0.433235 0.952909 0.799821
437 4 0.420079 0.979653 0.820121
167 4 0.0407095 0.0205572 0.865551
165 2 0.0488429 0.00814417 0.898419
677 4 0.00818786 0.0262685 0.88407
301 4 0.139783 0.0376623 0.864871
526 4 0.1724 0.0527557 0.856884
525 2 0.201777 0.0529337 0.877799
527 4 0.231153 0.0531116 0.898714
1400 4 0.350363 0.000224978 0.867371
517 4 0.402111 0.057215 0.842253
790 4 0.0600531 0.124851 0.827175
948 2 0.416971 0.119259 0.846239
949 4 0.414043 0.153522 0.857096
1113 2 0.362133 0.193541 0.837487
1114 4 0.367768 0.185778 0.872249
717 2 0.2464 0.391054 0.909614
1133 4 0.474045 0.351738 0.856248
1131 2 0.488835 0.330224 0.831374
718 4 0.233061 0.423395 0.900864
559 4 0.477946 0.468033 0.920563
426 2 0.0467255 0.5235 0.831309
428 4 0.0569029 0.545802 0.857757
1162 4 0.0936008 0.543697 0.850567
1161 2 0.102035 0.565503 0.878022
1163 4 0.110469 0.58731 0.905477
1225 4 0.395128 0.580952 0.860865
1211 4 0.419772 0.53404 0.930487
1209 2 0.397767 0.547069 0.905062
1210 4 0.375763 0.560096 0.879636
597 2 0.29457 0.625969 0.867112
599 4 0.279775 0.651455 0.846328
598 4 0.309365 0.600483 0.887896
645 2 0.153762 0.697894 0.89071
646 4 0.178824 0.672456 0.885693
647 4 0.128699 0.723332 0.895728
641 4 0.140759 0.789802 0.887898
639 2 0.167603 0.8137 0.890845
287 4 0.476423 0.783008 0.838566
285 2 0.497531 0.809353 0.851247
640 4 0.194447 0.837598 0.893791
607 4 0.00565728 0.9497 0.847002
1398 2 0.372951 0.972638 0.861975
1399 4 0.395539 0.94505 0.856579
265 4 0.375388 0.113527 0.93955
264 2 0.398909 0.0864838 0.935568
632 4 0.489981 0.00868413 0.959565
630 2 0.462442 0.0142241 0.982178
266 4 0.422431 0.0594396 0.931589
893 4 0.00147309 0.211902 0.945628
1459 4 0.45003 0.179175 0.950223
1458 2 0.420158 0.177574 0.970359
320 4 0.496518 0.378953 0.905531
570 2 0.00330248 0.712286 0.904584
1307 4 0.00172703 0.759921 0.801704
253 4 0.395406 0.298578 0.947084
719 4 0.259738 0.358713 0.918365
672 2 0.308042 0.383753 0.998879
674 4 0.315101 0.356281 0.97661
252 2 0.409342 0.331006 0.954469
254 4 0.423279 0.363435 0.961855
318 2 0.469198 0.384404 0.92843
319 4 0.441879 0.389854 0.951328
560 4 0.413639 0.499147 0.910651
558 2 0.445792 0.483589 0.915607
280 4 0.0832298 0.0888484 0.505201
449 4 0.101003 0.529351 0.999348
1216 4 0.118323 0.609838 0.936186
1215 2 0.137279 0.610661 0.966853
1217 4 0.156235 0.611485 0.997519
1196 4 0.342856 0.610578 0.983613
341 4 0.41967 0.636377 0.942054
328 4 0.488588 0.611374 0.94324
340 4 0.468969 0.588429 0.963784
339 2 0.444319 0.612403 0.95292
1169 4 0.0839599 0.721105 0.98634
571 4 0.0246872 0.68521 0.915073
1167 2 0.107725 0.719973 0.959241
1168 4 0.131491 0.718841 0.932143
1016 4 0.253892 0.751544 0.963363
138 2 0.0504556 0.811392 0.951852
139 4 0.0489562 0.830423 0.982445
140 4 0.0519554 0.79236 0.921259
1014 2 0.272071 0.771301 0.987438
868 4 0.180719 0.868776 0.904003
867 2 0.166546 0.901199 0.910948
166 4 0.0569755 0.995731 0.931284
1256 4 0.0823698 0.0040122 0.954104
1254 2 0.110423 0.981746 0.949902
816 2 0.0176988 0.350812 0.615152
1460 4 0.390285 0.175975 0.990495
92 4 0.493568 0.820041 0.801638
188 4 0.530619 0.0427809 0.037365
186 2 0.515441 0.0120451 0.0485602
749 4 0.608333 0.0636451 0.0564791
747 2 0.606579 0.0502119 0.0230597
438 2 0.739732 0.0165085 0.00155974
733 4 0.686425 0.996022 0.0308323
1273 4 0.592969 0.137662 0.0290521
1272 2 0.593033 0.16015 0.0572428
792 2 0.953297 0.125013 0.0140485
794 4 0.941841 0.0909677 0.0172292
793 4 0.964753 0.159058 0.0108683
469 4 0.828859 0.24047 0.0119015
1009 4 0.996377 0.605076 0.319046
586 4 0.750435 0.298324 0.0127705
1301 4 0.667431 0.305142 0.085958
585 2 0.771334 0.270552 0.00315947
401 4 0.9989 0.699336 0.180738
158 4 0.749548 0.332944 0.021217
1030 4 0.817329 0.375721 0.0101785
1421 4 0.892021 0.405659 0.0176096
1419 2 0.912759 0.384853 0.0385263
1157 4 0.926229 0.352221 0.0920007
1420 4 0.933496 0.364047 0.0594421
394 4 0.578044 0.512205 0.0311704
310 4 0.779399 0.42633 0.0953365
395 4 0.547106 0.570333 0.0605921
393 2 0.562575 0.54127 0.0458813
1251 2 0.667746 0.536253 0.0658781
1253 4 0.634187 0.538105 0.0789457
1252 4 0.701305 0.534402 0.0528101
1043 4 0.775495 0.526109 0.0399558
1041 2 0.77436 0.53968 0.00656412
1185 2 0.90177 0.749127 0.0151836
1184 4 0.593759 0.650874 0.0785141
1182 2 0.588415 0.627129 0.0519049
1183 4 0.583071 0.603385 0.0252956
1292 4 0.838865 0.590423 0.0180146
1100 4 0.656245 0.741853 0.033381
600 2 0.666389 0.693574 0.0283224
601 4 0.663048 0.714605 0.0574248
1099 4 0.626291 0.801589 0.00625224
1098 2 0.641268 0.771721 0.0198167
1354 4 0.659335 0.814824 0.0169111
974 4 0.836059 0.766208 0.0540651
1452 2 0.888448 0.815006 0.0462078
1453 4 0.873775 0.782297 0.0501139
1187 4 0.883625 0.748836 0.0463457
414 2 0.957302 0.81626 0.0180313
416 4 0.923703 0.829299 0.0167797
415 4 0.9909 0.803221 0.0192837
64 4 0.665865 0.889461 0.0117812
1355 4 0.698481 0.87507 0.0106169
1353 2 0.67891 0.844948 0.0137643
1454 4 0.903122 0.847714 0.042301
187 4 0.500262 0.981309 0.059756
734 4 0.655495 0.95796 0.0837121
732 2 0.67096 0.976991 0.0572725
439 4 0.715895 0.990397 0.00865438
120 2 0.803293 0.934829 0.0193857
122 4 0.768022 0.931257 0.012783
121 4 0.838564 0.938401 0.0259889
229 4 0.727483 0.0829773 0.0994301
228 2 0.718931 0.0976896 0.131223
409 4 0.509221 0.0948076 0.155849
1274 4 0.593098 0.182637 0.0854344
1130 4 0.582656 0.187657 0.122156
1129 4 0.603819 0.254723 0.106162
1128 2 0.593238 0.22119 0.11416
60 2 0.78288 0.207635 0.167043
61 4 0.759167 0.231603 0.179837
946 4 0.620383 0.287856 0.153988
1299 2 0.646064 0.284724 0.106622
1300 4 0.624698 0.264308 0.127286
353 4 0.881842 0.288332 0.124634
351 2 0.897279 0.305155 0.0967215
352 4 0.912716 0.32198 0.06881
886 4 0.858803 0.312844 0.141401
901 4 0.949719 0.282614 0.185916
1204 4 0.957857 0.310009 0.160195
1203 2 0.969211 0.291357 0.131497
1205 4 0.980564 0.272704 0.102798
306 2 0.670524 0.385433 0.132628
307 4 0.64466 0.369394 0.113283
308 4 0.696389 0.401473 0.151972
1156 4 0.915642 0.405125 0.139861
1155 2 0.920936 0.378673 0.115931
311 4 0.726834 0.42269 0.144584
309 2 0.753116 0.42451 0.11996
1270 4 0.83672 0.540177 0.0750663
1269 2 0.843634 0.549225 0.109282
1271 4 0.850545 0.558274 0.143499
453 2 0.508699 0.606329 0.118397
455 4 0.514496 0.590006 0.150024
362 4 0.711211 0.641422 0.112523
360 2 0.698043 0.632054 0.144761
4 3 0.924481 0.977719 0.463786
397 4 0.5786 0.717823 0.131859
111 2 0.523312 0.721896 0.0991635
113 4 0.559306 0.720302 0.100691
442 4 0.713704 0.799607 0.120985
441 2 0.739685 0.801374 0.14593
443 4 0.765666 0.803143 0.170875
973 4 0.793093 0.780727 0.110144
972 2 0.814576 0.773467 0.082105
387 2 0.572412 0.912043 0.102802
403 4 0.642961 0.903197 0.122089
389 4 0.592489 0.901512 0.0747611
402 2 0.67014 0.885512 0.137865
404 4 0.697321 0.867827 0.15364
123 2 0.980656 0.845839 0.132456
124 4 0.986826 0.855483 0.166652
388 4 0.552334 0.922575 0.130845
908 4 0.502456 0.952066 0.156646
1081 4 0.537699 0.041726 0.248331
1080 2 0.525297 0.00792279 0.246341
230 4 0.71038 0.112402 0.163017
68 4 0.687184 0.161095 0.217585
66 2 0.6744 0.140763 0.244485
75 2 0.85616 0.105913 0.2355
77 4 0.850192 0.139651 0.224251
883 4 0.824394 0.159829 0.244845
947 4 0.58025 0.255376 0.204347
1146 2 0.630961 0.206313 0.223552
1148 4 0.599738 0.222217 0.215032
1147 4 0.662185 0.19041 0.232072
62 4 0.806593 0.183668 0.15425