ITEM: TIMESTEP
155000
ITEM: NUMBER OF ATOMS
1520
ITEM: BOX BOUNDS pp pp pp
-6.9326749999999997e+00 6.9326749999999997e+00
-6.9326749999999997e+00 6.9326749999999997e+00
-6.9326749999999997e+00 6.9326749999999997e+00
ITEM: ATOMS id type xs ys zs
999 2 0.0472329 0.0051621 0.0188812
1502 4 0.112609 0.0521173 0.0610923
122 4 0.000708265 0.583599 0.487843
353 4 0.431891 0.0672343 0.0335758
131 4 0.00229078 0.132422 0.108655
92 4 0.219427 0.229609 0.0598121
90 2 0.231439 0.196691 0.0512979
1191 2 0.276237 0.144658 0.0083303
1280 4 0.305165 0.17949 0.103852
352 4 0.412499 0.126798 0.0693235
351 2 0.422195 0.0970159 0.05145
140 4 0.428472 0.160147 0.0482436
394 4 0.120475 0.227366 0.0866561
91 4 0.24345 0.163773 0.0427836
1192 4 0.268391 0.143561 0.0435102
1278 2 0.331771 0.181458 0.0795902
547 4 0.373698 0.196195 0.0253603
1279 4 0.358378 0.183425 0.0553288
138 2 0.438665 0.192279 0.0610514
139 4 0.448858 0.224411 0.0738593
309 2 0.102341 0.302043 0.0239445
311 4 0.112118 0.290143 0.0565514
457 4 0.485212 0.111079 0.383772
420 2 0.382132 0.287574 0.0193919
422 4 0.361895 0.277979 0.0476543
962 4 0.027108 0.937029 0.44573
413 4 0.139247 0.311256 0.0701961
760 4 0.430469 0.504903 0.0482586
759 2 0.441432 0.487733 0.0185032
1345 4 0.100767 0.555133 0.0134501
1473 2 0.189052 0.560965 0.0247572
1474 4 0.182927 0.525428 0.0245411
128 4 0.198927 0.494248 0.01708
1514 4 0.261792 0.524288 0.0679994
1160 4 0.0955192 0.650423 0.026958
4 3 0.0113234 0.215413 0.214559
974 4 0.469429 0.305817 0.162322
1512 2 0.256028 0.559767 0.0650908
591 2 0.430313 0.613708 0.0169112
593 4 0.438367 0.600219 0.0493702
945 2 0.486833 0.2586 0.467358
1158 2 0.0781387 0.681174 0.0342168
1159 4 0.0607582 0.711926 0.0414758
1311 2 0.405687 0.699754 0.029145
1312 4 0.428341 0.724684 0.0420163
367 4 0.496897 0.767374 0.126428
1196 4 0.0268566 0.833153 0.999167
1194 2 0.0203748 0.797681 0.999544
1195 4 0.0138927 0.762209 0.999921
125 4 0.117128 0.758751 0.0394983
123 2 0.11217 0.785527 0.0158584
466 4 0.0330896 0.856214 0.0250463
465 2 0.0493904 0.878201 0.0485249
1001 4 0.0556405 0.98806 0.0494957
1334 4 0.0736624 0.956887 0.0551554
1332 2 0.102475 0.939163 0.0426618
1333 4 0.131287 0.921438 0.030168
361 4 0.153714 0.940717 0.0104868
360 2 0.173047 0.970103 0.00254054
1190 4 0.487568 0.94691 0.0643727
1331 4 0.456522 0.953097 0.0477125
1500 2 0.137421 0.0354041 0.081228
720 2 0.18164 0.050584 0.157988
721 4 0.209499 0.0620828 0.138188
1006 4 0.357727 0.00178646 0.125408
1005 2 0.366019 0.00308922 0.160478
1357 4 0.259805 0.484786 0.0107993
393 2 0.142576 0.222458 0.114725
502 4 0.17433 0.249468 0.154782
395 4 0.164676 0.21755 0.142795
38 3 0.153668 0.328747 0.149778
37 3 0.20165 0.324408 0.124934
463 4 0.222976 0.33706 0.151195
36 1 0.184987 0.317335 0.152737
411 2 0.151657 0.343672 0.0799751
97 4 0.142763 0.401355 0.105726
412 4 0.164068 0.376088 0.0897539
462 2 0.252717 0.355831 0.143223
1397 4 0.267366 0.397142 0.112862
464 4 0.282458 0.374601 0.13525
150 2 0.0636245 0.476163 0.164608
152 4 0.0804181 0.473301 0.132824
98 4 0.096653 0.443148 0.142181
96 2 0.119708 0.422252 0.123953
1396 4 0.253769 0.462444 0.0854331
127 4 0.233211 0.489696 0.0803685
126 2 0.216069 0.491971 0.0487244
1395 2 0.260567 0.429793 0.0991477
1124 4 0.348755 0.488823 0.144483
151 4 0.0468308 0.479025 0.196391
1329 2 0.463321 0.959661 0.0129116
508 4 0.484729 0.524371 0.0406624
904 4 0.140473 0.199913 0.491224
985 4 0.269751 0.625737 0.145479
1513 4 0.250263 0.595246 0.0621825
986 4 0.257573 0.630193 0.0745318
984 2 0.263662 0.627965 0.110005
461 4 0.471406 0.563715 0.121001
459 2 0.497425 0.582863 0.104975
1475 4 0.195177 0.596501 0.0249735
1444 4 0.103059 0.774635 0.13415
1458 2 0.0360451 0.809552 0.0832897
1459 4 0.0641967 0.824545 0.100113
179 4 0.479342 0.500134 0.488431
1443 2 0.0945506 0.760671 0.102009
1445 4 0.0860421 0.746708 0.0698679
1185 2 0.449714 0.791106 0.143235
1186 4 0.484785 0.787531 0.150824
1187 4 0.414642 0.794681 0.135647
467 4 0.065691 0.900188 0.072004
644 4 0.0889868 0.830588 0.119554
642 2 0.124334 0.837261 0.122083
1197 2 0.401994 0.888691 0.114697
1198 4 0.367838 0.895699 0.123899
1199 4 0.436149 0.881683 0.105495
1501 4 0.162232 0.0186909 0.101364
983 4 0.284528 0.934243 0.100388
981 2 0.319763 0.927092 0.103173
982 4 0.354998 0.919943 0.105957
1188 2 0.495387 0.949862 0.0994518
989 4 0.248572 0.051203 0.00605009
722 4 0.15378 0.039085 0.177788
141 2 0.244003 0.979769 0.213283
143 4 0.260939 0.981218 0.245087
1007 4 0.37431 0.00439164 0.195549
1336 4 0.399142 0.0272588 0.199135
1335 2 0.384768 0.0564302 0.214717
1221 2 0.452149 0.00255972 0.203169
1222 4 0.426397 0.0206438 0.220782
1223 4 0.477902 0.984476 0.185557
260 4 0.0818817 0.0955637 0.248144
258 2 0.0554791 0.0718857 0.241612
354 2 0.36282 0.131437 0.263358
356 4 0.345689 0.10244 0.250471
1337 4 0.370394 0.0856021 0.230299
1141 4 0.103614 0.225085 0.199053
1140 2 0.0720182 0.228991 0.21599
501 2 0.164196 0.244827 0.189078
503 4 0.154063 0.240186 0.223373
1499 4 0.494693 0.176458 0.186776
39 3 0.184697 0.284148 0.157029
40 3 0.199826 0.331801 0.178219
280 4 0.0405636 0.372553 0.206919
631 4 0.101373 0.387544 0.226744
523 4 0.209695 0.456399 0.264128
522 2 0.201544 0.491309 0.26804
1123 4 0.374185 0.431515 0.180131
1122 2 0.36147 0.460169 0.162307
193 4 0.429909 0.434931 0.25105
42 3 0.486558 0.454283 0.189152
43 3 0.462251 0.497083 0.211863
44 3 0.435727 0.466553 0.174865
45 3 0.446453 0.446622 0.224225
41 1 0.45758 0.466064 0.200205
524 4 0.193393 0.526218 0.271953
667 4 0.313914 0.491204 0.156427
666 2 0.309857 0.517325 0.180956
949 4 0.295092 0.570248 0.229195
668 4 0.3058 0.543446 0.205484
950 4 0.244793 0.61451 0.202503
948 2 0.269942 0.592379 0.215849
1170 2 0.47832 0.556343 0.276017
1172 4 0.449813 0.534288 0.277169
110 4 0.373882 0.679815 0.226099
1313 4 0.383032 0.674824 0.0162736
180 2 0.169267 0.70723 0.240701
181 4 0.150102 0.676722 0.242226
108 2 0.388775 0.708728 0.210521
109 4 0.40367 0.73764 0.194944
279 2 0.0108038 0.391526 0.199518
726 2 0.457357 0.759892 0.254073
727 4 0.466561 0.725233 0.250269
968 4 0.032084 0.93073 0.204151
966 2 0.0669194 0.926638 0.212527
967 4 0.101755 0.922546 0.220903
643 4 0.159682 0.843933 0.124612
142 4 0.227068 0.978321 0.181479
259 4 0.0290765 0.0482077 0.235081
599 4 0.264679 0.059378 0.312412
597 2 0.269356 0.0295605 0.292678
217 4 0.034752 0.182278 0.32117
743 4 0.107985 0.174196 0.272092
1258 4 0.354221 0.177251 0.300184
355 4 0.379952 0.160434 0.276246
216 2 0.0555554 0.15311 0.317066
741 2 0.127994 0.189211 0.246119
742 4 0.148002 0.204226 0.220145
699 2 0.224647 0.18064 0.351867
701 4 0.211042 0.194876 0.321657
700 4 0.238253 0.166404 0.382076
1257 2 0.32528 0.19612 0.310518
1259 4 0.296339 0.214989 0.320851
1136 4 0.174864 0.290043 0.2985
1135 4 0.210425 0.228086 0.308419
1134 2 0.192645 0.259064 0.303459
630 2 0.086427 0.401319 0.256531
632 4 0.0714807 0.415094 0.286317
387 2 0.209627 0.393699 0.236593
389 4 0.245445 0.391025 0.233379
371 4 0.155744 0.37839 0.264459
388 4 0.173809 0.396372 0.239807
274 4 0.239325 0.391802 0.268708
273 2 0.25463 0.388267 0.301168
275 4 0.269935 0.384732 0.333628
192 2 0.440416 0.401998 0.261317
194 4 0.450922 0.369064 0.271583
163 4 0.0440398 0.418919 0.308891
162 2 0.0297391 0.452012 0.309765
369 2 0.158715 0.395008 0.296325
370 4 0.161686 0.411626 0.328191
1349 4 0.0423519 0.559183 0.22107
133 4 0.0308235 0.631501 0.263589
1347 2 0.0521065 0.586746 0.242178
132 2 0.00891618 0.660006 0.260774
1348 4 0.0618611 0.61431 0.263285
566 4 0.279459 0.613667 0.3118
564 2 0.314626 0.619496 0.317252
565 4 0.349793 0.625325 0.322704
1435 4 0.389308 0.635872 0.32451
1453 4 0.484102 0.608192 0.320796
1072 4 0.143425 0.389108 0.473839
1071 2 0.119761 0.366319 0.488707
880 4 0.479609 0.692149 0.256118
881 4 0.413585 0.669533 0.23792
879 2 0.446598 0.680841 0.247019
57 2 0.0474242 0.795098 0.315457
182 4 0.188433 0.737739 0.239176
59 4 0.0807091 0.803077 0.304106
728 4 0.448153 0.794551 0.257877
1301 4 0.419264 0.804484 0.287378
1299 2 0.406177 0.834179 0.303108
1520 4 0.201027 0.871123 0.316587
1161 2 0.262129 0.892544 0.300202
1163 4 0.234862 0.882283 0.321453
1162 4 0.289397 0.902805 0.278951
940 4 0.136118 0.959159 0.236464
939 2 0.138129 0.953359 0.271998
941 4 0.14014 0.94756 0.307533
598 4 0.274033 0.999743 0.272943
1354 4 0.470476 0.928536 0.299261
1353 2 0.469758 0.946629 0.330447
657 2 0.0609676 0.0343072 0.376152
658 4 0.0888437 0.0510586 0.360573
1121 4 0.164259 0.137054 0.42672
889 4 0.439028 0.175318 0.393107
888 2 0.444412 0.144073 0.375923
218 4 0.0763589 0.123942 0.312962
1119 2 0.175098 0.171117 0.421966
1120 4 0.185937 0.205181 0.417211
1201 4 0.313272 0.190456 0.42799
570 2 0.378073 0.20521 0.417121
571 4 0.41349 0.199675 0.413182
776 4 0.431978 0.21295 0.379555
774 2 0.44237 0.242587 0.397277
1492 4 0.106206 0.418561 0.320027
1491 2 0.0991106 0.404444 0.352442
1493 4 0.0920155 0.390326 0.384858
382 4 0.0688593 0.411242 0.403868
223 4 0.289252 0.413796 0.348624
222 2 0.320472 0.430536 0.355373
224 4 0.351692 0.447276 0.36212
164 4 0.0154399 0.485104 0.310638
55 4 0.172071 0.439717 0.351962
54 2 0.18271 0.455278 0.382704
56 4 0.193348 0.470839 0.413447
22 3 0.383072 0.467626 0.366612
21 1 0.396685 0.496385 0.357215
1048 4 0.366242 0.449467 0.392504
23 3 0.42994 0.494092 0.360175
1047 2 0.384906 0.420829 0.403991
24 3 0.388437 0.502352 0.325336
25 3 0.385361 0.520501 0.376424
582 2 0.4883 0.572068 0.431882
1107 2 0.244386 0.638656 0.367319
1108 4 0.265614 0.631012 0.339188
766 4 0.339052 0.632653 0.393356
767 4 0.295256 0.619949 0.449232
1434 2 0.385417 0.651887 0.292435
765 2 0.317154 0.626301 0.421294
1142 4 0.0404225 0.232897 0.232927
1109 4 0.223158 0.6463 0.39545
365 4 0.229954 0.677075 0.412801
1436 4 0.381527 0.667901 0.260359
58 4 0.0141394 0.787118 0.326808
1144 4 0.223426 0.799817 0.395101
1413 2 0.00654319 0.878093 0.412914
1519 4 0.216395 0.827655 0.372049
1518 2 0.208711 0.849389 0.344318
1300 4 0.39309 0.863873 0.318837
1414 4 0.0250138 0.905683 0.426987
659 4 0.0330915 0.0175556 0.391732
791 4 0.220589 0.941151 0.366551
790 4 0.166275 0.96031 0.409962
789 2 0.193432 0.95073 0.388257
251 4 0.382445 0.926864 0.402267
249 2 0.407272 0.946106 0.384552
250 4 0.432098 0.965347 0.366837
1355 4 0.469039 0.964722 0.361632
428 4 0.128013 0.0322992 0.419752
426 2 0.136243 0.998528 0.429352
898 4 0.143845 0.0648725 0.426994
1118 4 0.333441 0.0868111 0.468812
1460 4 0.00789192 0.794559 0.0664663
899 4 0.19308 0.117573 0.427373
897 2 0.168462 0.091223 0.427184
1116 2 0.346273 0.120137 0.473827
1117 4 0.359105 0.153462 0.478842
890 4 0.449796 0.11283 0.358739
401 4 0.0316722 0.0407286 0.474083
1441 4 0.178523 0.243353 0.402769
1200 2 0.295633 0.200684 0.398247
1202 4 0.277994 0.210913 0.368504
572 4 0.342657 0.210746 0.421059
775 4 0.452762 0.272223 0.415001
105 2 0.190866 0.950012 0.4944
1424 4 0.0160695 0.298812 0.439264
399 2 0.0201175 0.0596739 0.44566
574 4 0.182274 0.381319 0.478079
1440 2 0.203841 0.248993 0.427821
1442 4 0.229158 0.254633 0.452873
1066 4 0.437189 0.353511 0.467339
947 4 0.463504 0.279755 0.449789
383 4 0.0756651 0.454335 0.461299
381 2 0.072262 0.432789 0.432583
575 4 0.220517 0.335016 0.438139
573 2 0.201396 0.358167 0.458109
1049 4 0.40357 0.392192 0.415478
1065 2 0.456754 0.344908 0.438294
1067 4 0.476319 0.336305 0.409249
539 4 0.207601 0.502857 0.40651
537 2 0.220316 0.512712 0.438785
538 4 0.233031 0.522567 0.471059
1056 2 0.444822 0.587293 0.495081
584 4 0.453686 0.562353 0.434702
1058 4 0.448647 0.587441 0.459224
813 2 0.328866 0.830905 0.468179
364 4 0.246221 0.715509 0.471621
363 2 0.238087 0.696292 0.442211
1309 4 0.271638 0.720498 0.497958
427 4 0.144473 0.964756 0.438951
65 4 0.340302 0.724653 0.422476
63 2 0.319736 0.746304 0.442692
400 4 0.00856209 0.0786192 0.417235
1143 2 0.250089 0.797286 0.419248
1145 4 0.276753 0.794755 0.443395
64 4 0.29917 0.767956 0.462908
815 4 0.306156 0.804781 0.458071
106 4 0.209818 0.948589 0.463753
814 4 0.351577 0.857029 0.478286
623 4 0.0015524 0.145606 0.0724494
1105 4 0.195348 0.807924 0.492744
998 4 0.054886 0.0361453 0.496305
996 2 0.0856311 0.0190058 0.504136
1388 4 0.00369778 0.184535 0.903413
873 2 0.00716013 0.108788 0.529552
713 4 0.225433 0.144329 0.582314
711 2 0.218341 0.1107 0.571395
712 4 0.21125 0.0770715 0.560476
846 2 0.361515 0.250195 0.534794
847 4 0.360956 0.22767 0.506638
678 2 0.101248 0.307004 0.591199
680 4 0.107441 0.319487 0.624459
1178 4 0.0237992 0.761915 0.504237
1168 4 0.00731642 0.655031 0.917851
316 4 0.288255 0.285039 0.602286
315 2 0.301023 0.28087 0.56882
317 4 0.313792 0.276701 0.535353
357 2 0.400342 0.320143 0.577927
359 4 0.393366 0.291844 0.556692
848 4 0.362074 0.27272 0.562949
283 4 0.0432742 0.342256 0.565959
1360 4 0.00317351 0.746027 0.961625
1073 4 0.0960976 0.343529 0.503575
1437 2 0.189622 0.407246 0.57398
970 4 0.225003 0.356069 0.598699
379 4 0.0168984 0.458738 0.52604
1439 4 0.1806 0.43914 0.559775
215 4 0.213754 0.454031 0.549495
177 2 0.492876 0.477192 0.512739
819 2 0.00539196 0.446983 0.854909
378 2 0.0427815 0.47865 0.541336
380 4 0.0686647 0.498562 0.556633
214 4 0.209758 0.525653 0.542014
213 2 0.211756 0.489842 0.545755
29 3 0.426362 0.583879 0.5954
66 2 0.0862795 0.609231 0.589174
120 2 0.0314921 0.581372 0.506493
121 4 0.062276 0.579146 0.525142
867 2 0.149318 0.655838 0.563887
67 4 0.0967434 0.637198 0.568956
869 4 0.176108 0.670473 0.583084
490 4 0.271118 0.652624 0.573292
489 2 0.268943 0.683943 0.555547
26 1 0.407186 0.604185 0.576965
27 3 0.378127 0.589231 0.571251
30 3 0.421908 0.610532 0.548298
1319 4 0.375068 0.626121 0.569304
1057 4 0.440999 0.587143 0.530939
491 4 0.266769 0.71526 0.537802
1055 4 0.00133691 0.912151 0.753533
1104 2 0.214699 0.806389 0.523134
1106 4 0.234052 0.804854 0.553524
1310 4 0.259313 0.785286 0.527152
425 4 0.233943 0.840445 0.559233
211 4 0.226937 0.793367 0.584647
210 2 0.239607 0.759672 0.58677
718 4 0.395748 0.767612 0.572953
719 4 0.433799 0.746101 0.515586
717 2 0.414773 0.756856 0.54427
423 2 0.26673 0.855131 0.562359
424 4 0.299517 0.869817 0.565487
638 4 0.311781 0.894246 0.591332
837 2 0.0953154 0.948148 0.550324
852 2 0.00893299 0.0187788 0.527472
997 4 0.116377 0.00186608 0.511968
839 4 0.0998409 0.981721 0.537961
271 4 0.185571 0.969521 0.547696
1408 4 0.432766 0.962505 0.538896
1407 2 0.445711 0.963759 0.57253
272 4 0.146393 0.00309283 0.598091
270 2 0.165982 0.986307 0.572893
994 4 0.0324291 0.118487 0.631334
993 2 0.0269994 0.139703 0.659984
800 4 0.228439 0.179345 0.563699
978 2 0.241155 0.139249 0.666642
384 2 0.414511 0.154912 0.611758
1043 4 0.398541 0.125568 0.664234
386 4 0.389762 0.146681 0.63666
799 4 0.212336 0.24959 0.566515
798 2 0.220387 0.214468 0.565107
1343 4 0.241857 0.189178 0.656906
980 4 0.256973 0.158545 0.640606
385 4 0.43926 0.163143 0.586856
679 4 0.0950552 0.294521 0.557939
580 4 0.295374 0.306014 0.627057
579 2 0.305205 0.281937 0.652039
358 4 0.407318 0.348441 0.599162
581 4 0.315036 0.257861 0.67702
284 4 0.0296926 0.405906 0.59704
282 2 0.0364834 0.374081 0.581499
1438 4 0.198644 0.375352 0.588184
969 2 0.260822 0.359741 0.596729
756 2 0.314827 0.420887 0.607841
757 4 0.319996 0.390656 0.588872
971 4 0.296642 0.363413 0.594758
62 4 0.324026 0.33846 0.639579
60 2 0.321052 0.360134 0.668247
758 4 0.309657 0.451117 0.62681
596 4 0.346596 0.441546 0.635392
594 2 0.354378 0.465594 0.661111
1330 4 0.470119 0.966224 0.97811
1308 2 0.265476 0.752891 0.512554
68 4 0.0758155 0.581264 0.609392
882 2 0.081237 0.563509 0.676577
1391 4 0.000488964 0.839409 0.661878
884 4 0.048316 0.578128 0.674877
868 4 0.122528 0.641203 0.54469
1026 2 0.24737 0.654317 0.645929
1318 4 0.305876 0.642541 0.557285
1317 2 0.340472 0.634331 0.563294
28 3 0.401592 0.632739 0.593496
1028 4 0.257216 0.644569 0.612635
1466 4 0.0337258 0.83386 0.670287
212 4 0.252277 0.725977 0.588892
241 4 0.28338 0.951974 0.666216
838 4 0.0907901 0.914576 0.562687
636 2 0.313306 0.93013 0.5881
637 4 0.31483 0.966013 0.584869
735 2 0.352116 0.957155 0.655603
736 4 0.385323 0.96805 0.646716
1409 4 0.458656 0.965012 0.606165
1483 4 0.475851 0.967947 0.63876
1482 2 0.482637 0.946845 0.667204
171 2 0.48638 0.0339154 0.734561
1505 4 0.0439674 0.185639 0.704696
995 4 0.0215697 0.16092 0.688633
773 4 0.133666 0.145349 0.701237
771 2 0.148182 0.164195 0.728339
979 4 0.225336 0.119954 0.692679
1292 4 0.404643 0.139208 0.769652
1041 2 0.400772 0.127693 0.700164
611 4 0.44753 0.0797231 0.748226
1503 2 0.0368086 0.214821 0.724636
1480 4 0.042908 0.236521 0.776888
772 4 0.162697 0.183042 0.755442
1476 2 0.199977 0.229106 0.753094
1342 4 0.215508 0.244254 0.695299
1341 2 0.228683 0.216716 0.676103
1477 4 0.225601 0.242365 0.73146
1042 4 0.403002 0.129819 0.736093
1112 4 0.424922 0.220352 0.719376
1110 2 0.458953 0.231771 0.715922
1479 2 0.0515174 0.271248 0.781398
1481 4 0.0601269 0.305975 0.785909
924 2 0.338676 0.239247 0.713836
926 4 0.336907 0.229818 0.679075
1111 4 0.492983 0.24319 0.712468
730 4 0.0170051 0.375812 0.746593
729 2 0.0485544 0.376129 0.72913
731 4 0.0801037 0.376446 0.711667
61 4 0.318078 0.381808 0.696914
338 4 0.362449 0.357122 0.714379
336 2 0.362243 0.385624 0.736469
337 4 0.362036 0.414127 0.758559
1420 4 0.455183 0.358861 0.713975
1419 2 0.427326 0.343579 0.696921
1421 4 0.399468 0.328297 0.679868
595 4 0.36216 0.489643 0.686831
296 4 0.00634727 0.618607 0.7346
607 4 0.146091 0.593818 0.6864
883 4 0.114158 0.548889 0.678276
964 4 0.30497 0.556467 0.688507
136 4 0.27262 0.543279 0.697448
965 4 0.368713 0.523676 0.680556
963 2 0.336841 0.540072 0.684532
606 2 0.164777 0.606501 0.714514
1027 4 0.237525 0.664065 0.679223
608 4 0.183463 0.619184 0.742627
958 4 0.329087 0.622819 0.766012
957 2 0.340048 0.657165 0.765257
959 4 0.351009 0.691512 0.764502
1364 4 0.0041693 0.719508 0.724557
321 2 0.120518 0.680848 0.767768
323 4 0.117926 0.69549 0.734915
686 4 0.395561 0.708263 0.720209
1447 4 0.382405 0.704297 0.755156
684 2 0.42787 0.716825 0.706673
377 4 0.474752 0.728633 0.730219
685 4 0.460179 0.725388 0.693138
1464 2 0.0646189 0.82306 0.685432
1465 4 0.095512 0.81226 0.700576
1127 4 0.0809476 0.80214 0.731816
473 4 0.166942 0.82294 0.701782
74 4 0.37077 0.81907 0.733708
472 4 0.224034 0.84937 0.737047
471 2 0.195488 0.836155 0.719414
242 4 0.285827 0.880421 0.657507
240 2 0.284603 0.916197 0.661862
520 4 0.291572 0.867576 0.690347
519 2 0.323675 0.857262 0.703129
905 4 0.0787049 0.225231 0.518525
737 4 0.318908 0.946259 0.664489
173 4 0.492768 0.999302 0.742404
706 4 0.480391 0.965169 0.736354
1215 2 0.00399595 0.0608105 0.821255
1393 4 0.14673 0.998021 0.790412
1392 2 0.171744 0.00189118 0.816097
1394 4 0.196759 0.00576058 0.841782
83 4 0.384875 0.047748 0.871726
943 4 0.144378 0.127692 0.830409
1290 2 0.396379 0.169295 0.787732
610 4 0.447613 0.142692 0.783391
609 2 0.447571 0.111208 0.765808
1504 4 0.0296497 0.244002 0.744576
1478 4 0.174353 0.215847 0.774728
976 4 0.416688 0.218823 0.813762
1291 4 0.388115 0.199383 0.805811
975 2 0.433557 0.247789 0.800464
236 4 0.204519 0.287645 0.769239
234 2 0.188537 0.293554 0.80102
235 4 0.172554 0.299462 0.832801
768 2 0.319285 0.263062 0.808902
769 4 0.344727 0.253513 0.785196
925 4 0.340445 0.248676 0.748598
977 4 0.450426 0.276754 0.787166
439 4 0.15788 0.456459 0.791482
438 2 0.158143 0.490374 0.779231
1487 4 0.392367 0.403423 0.765366
1485 2 0.411954 0.432742 0.772927
1486 4 0.431542 0.462059 0.780488
1368 2 0.0872665 0.54867 0.761892
1369 4 0.0885675 0.542125 0.797331
440 4 0.158406 0.524289 0.766979
135 2 0.267233 0.572689 0.717608
1370 4 0.0859653 0.555215 0.726454
1228 4 0.106325 0.601863 0.829727
475 4 0.211653 0.650605 0.738275
474 2 0.20845 0.662871 0.772034
137 4 0.261845 0.602098 0.737769
738 2 0.464081 0.61947 0.850783
1363 4 0.0473265 0.681095 0.767725
1362 2 0.0257481 0.700302 0.746141
614 4 0.0613126 0.708186 0.782195
322 4 0.123109 0.666205 0.80062
1126 4 0.0671794 0.73556 0.755884
612 2 0.0696297 0.73145 0.808462
1016 4 0.139829 0.68108 0.825145
476 4 0.205246 0.675137 0.805792
1014 2 0.169423 0.692665 0.842185
1448 4 0.430471 0.726038 0.804334
1446 2 0.406438 0.715168 0.779745
740 4 0.474694 0.653385 0.844658
1125 2 0.0740635 0.76885 0.743849
661 4 0.191909 0.830008 0.838176
72 2 0.405205 0.829436 0.731023
73 4 0.43964 0.839802 0.728338
228 2 0.137954 0.933957 0.796985
230 4 0.128437 0.902555 0.782028
662 4 0.160736 0.823645 0.773451
660 2 0.176323 0.826827 0.805814
521 4 0.355779 0.846947 0.715911
229 4 0.147472 0.96536 0.811942
446 4 0.246172 0.971976 0.75117
444 2 0.239251 0.958618 0.783943
445 4 0.23233 0.945259 0.816716
705 2 0.46141 0.946635 0.760779
219 2 0.444566 0.970784 0.837238
221 4 0.450491 0.958311 0.803926
707 4 0.44243 0.9281 0.785205
1217 4 0.00137477 0.0690142 0.856273
568 4 0.222572 0.0414323 0.925867
81 2 0.382126 0.0550712 0.906928
82 4 0.379376 0.0623943 0.942131
812 4 0.492178 0.0584788 0.865922
810 2 0.466324 0.0361364 0.877445
942 2 0.113693 0.109607 0.824772
944 4 0.0830085 0.0915226 0.819134
664 4 0.228808 0.173786 0.860833
663 2 0.196993 0.168939 0.877102
1130 4 0.247344 0.144099 0.861428
1128 2 0.280656 0.135817 0.850375
1129 4 0.313967 0.127535 0.839321
1018 4 0.132099 0.176836 0.88735
665 4 0.165177 0.164091 0.893372
1017 2 0.108956 0.190758 0.911245
784 4 0.202195 0.225855 0.876027
783 2 0.195769 0.251473 0.900579
587 4 0.230423 0.207437 0.875514
586 4 0.276912 0.233768 0.827067
585 2 0.253667 0.220602 0.85129
403 4 0.487954 0.185058 0.853197
402 2 0.479403 0.171125 0.885339
785 4 0.189342 0.277091 0.925131
770 4 0.293844 0.27261 0.832608
301 4 0.28948 0.309756 0.850992
85 4 0.336554 0.290558 0.903151
820 4 0.0264298 0.422444 0.870898
300 2 0.291748 0.341038 0.868789
302 4 0.294015 0.372319 0.886586
1237 4 0.297229 0.404717 0.87925
1236 2 0.294214 0.422613 0.910411
1238 4 0.291199 0.440509 0.941573
1303 4 0.0142679 0.545745 0.925337
1302 2 0.0497483 0.541655 0.920356
200 4 0.0144264 0.531027 0.891309
1033 4 0.343583 0.479862 0.954124
1032 2 0.357265 0.496057 0.924952
613 4 0.0779473 0.754716 0.834729
1227 2 0.134681 0.607066 0.85139
1229 4 0.163037 0.612269 0.873054
169 4 0.135654 0.634484 0.889848
170 4 0.13873 0.694057 0.930385
168 2 0.137192 0.664271 0.910117
1038 2 0.305408 0.601503 0.891141
1039 4 0.28241 0.574053 0.8869
739 4 0.453469 0.585554 0.856907
1015 4 0.199017 0.704251 0.859226
89 4 0.224639 0.680038 0.830375
87 2 0.253043 0.679799 0.852589
88 4 0.281447 0.679561 0.874805
53 4 0.344549 0.722473 0.873166
51 2 0.322255 0.698421 0.888162
52 4 0.299962 0.674368 0.903159
1411 4 0.0161186 0.741471 0.896748
1417 4 0.0493972 0.753816 0.891946
1416 2 0.0788456 0.773957 0.897194
541 4 0.0979751 0.828232 0.904196
1418 4 0.108294 0.794097 0.902442
1022 4 0.197358 0.81379 0.866927
1020 2 0.196714 0.778327 0.873433
782 4 0.286913 0.7986 0.824658
780 2 0.296956 0.815566 0.854851
781 4 0.307 0.832533 0.885045
540 2 0.11644 0.853549 0.88635
542 4 0.134905 0.878867 0.868505
1283 4 0.314472 0.81653 0.916243
69 2 0.409513 0.924779 0.890809
71 4 0.441249 0.940275 0.898099
206 4 0.287374 0.940116 0.900671
204 2 0.323217 0.94109 0.896835
70 4 0.377777 0.909284 0.88352
220 4 0.438642 0.983257 0.870551
655 4 0.476165 0.933142 0.886393
811 4 0.440469 0.0137941 0.888968
1000 4 0.0388252 0.0222636 0.988266
988 4 0.185319 0.03129 0.977694
567 2 0.246867 0.0194505 0.910802
987 2 0.216945 0.0412465 0.991872
468 2 0.0719215 0.101129 0.958855
470 4 0.0866386 0.133345 0.965634
469 4 0.0572044 0.0689133 0.952075
1010 4 0.223996 0.078591 0.924932
1216 4 0.00661689 0.0526067 0.786238
1009 4 0.25739 0.137812 0.949001
1008 2 0.240693 0.108202 0.936966
404 4 0.470852 0.157191 0.917482
1193 4 0.284084 0.145754 0.97315
1403 4 0.358536 0.0616506 0.971787
1401 2 0.391888 0.0564057 0.984459
1165 4 0.0154576 0.223249 0.998719
1164 2 0.0450819 0.226859 0.978476
1019 4 0.0858128 0.204681 0.93514
1166 4 0.0747062 0.230469 0.958233
546 2 0.381376 0.211967 0.993853
548 4 0.389055 0.227739 0.962346
938 4 0.495838 0.153744 0.950233
331 4 0.15543 0.281997 0.917154
310 4 0.0925641 0.313943 0.991338
330 2 0.140317 0.292366 0.94821
332 4 0.125203 0.302736 0.979266
84 2 0.350744 0.272436 0.930911
86 4 0.364935 0.254313 0.958671
913 4 0.416728 0.293478 0.93334
914 4 0.478147 0.26586 0.959159
912 2 0.447437 0.279669 0.946249
1245 2 0.395042 0.345643 0.970428
1246 4 0.385554 0.377907 0.983445
1358 4 0.304013 0.470336 0.955677
1356 2 0.281909 0.477561 0.983238
854 4 0.037166 0.0411616 0.528998
761 4 0.452396 0.470562 0.988748
496 4 0.481492 0.465351 0.968532
654 2 0.478505 0.954621 0.915265
1304 4 0.0852289 0.537565 0.915375
1346 4 0.0956753 0.559843 0.941662
1344 2 0.0982212 0.557488 0.977556
1484 4 0.489423 0.925743 0.695648
1034 4 0.370946 0.512251 0.89578
1040 4 0.328406 0.628954 0.895382
375 2 0.499361 0.715196 0.752896
562 4 0.269965 0.672429 0.930385
232 4 0.308141 0.66268 0.951773
231 2 0.34048 0.668333 0.966694
233 4 0.372819 0.673986 0.981616
763 4 0.460835 0.628059 0.970627
762 2 0.461066 0.646279 0.939508
764 4 0.461297 0.664499 0.908389
256 4 0.186999 0.74098 0.980929
255 2 0.192316 0.733111 0.946141
257 4 0.197633 0.725241 0.911353
107 4 0.171912 0.951435 0.525045
124 4 0.107211 0.812304 0.992219
1021 4 0.196071 0.742863 0.87994
327 2 0.15654 0.897084 0.955738
329 4 0.136426 0.926718 0.959941
328 4 0.176653 0.86745 0.951534
1281 2 0.324013 0.82758 0.949216
1282 4 0.333555 0.838631 0.98219
205 4 0.359061 0.942064 0.893
569 4 0.271162 0.997469 0.895736
592 4 0.42226 0.627198 0.984452
656 4 0.480845 0.976099 0.944138
172 4 0.479992 0.0685288 0.726718
1247 4 0.404529 0.31338 0.957413
561 2 0.253008 0.658345 0.958925
449 4 0.487913 0.100369 0.63933
903 2 0.109589 0.212572 0.504875
447 2 0.498241 0.0851537 0.67035
1381 4 0.00848184 0.570941 0.889964
362 4 0.19238 0.999488 0.994594
421 4 0.40237 0.29717 0.991129
563 4 0.236052 0.644261 0.987465
1402 4 0.425239 0.051161 0.997132
874 4 0.0288219 0.0914757 0.506499
1171 4 0.506827 0.578399 0.274865
1189 4 0.503207 0.952814 0.134531
326 4 0.702238 0.0697153 0.00221924
1081 4 0.962434 0.0339958 0.0380513
407 4 0.966374 0.99896 0.0336468
1080 2 0.93863 0.0313325 0.0650084
161 4 0.536183 0.12234 0.00471367
1454 4 0.545582 0.600131 0.357631
635 4 0.696046 0.143769 0.0147736
633 2 0.678639 0.123764 0.0392113
634 4 0.661232 0.103758 0.0636488
1340 4 0.771147 0.0418102 0.0158586
1338 2 0.789852 0.0645494 0.0366782
1339 4 0.808557 0.0872887 0.0574975
1384 4 0.927082 0.141575 0.00918786
1037 4 0.901078 0.16037 0.0152771
1383 2 0.94282 0.110164 0.0173119
621 2 0.99554 0.163768 0.0418807
160 4 0.603489 0.130817 0.0292035
339 2 0.575192 0.22221 0.0283618
340 4 0.600601 0.223707 0.0539066
824 4 0.80319 0.183014 0.0716951
1035 2 0.898613 0.183641 0.0427131
1036 4 0.896146 0.206913 0.0701495
622 4 0.989529 0.181929 0.0113122
788 4 0.507093 0.324046 0.0406058
786 2 0.506149 0.321003 0.00468574
515 4 0.607811 0.30646 0.0796985
176 4 0.619325 0.319881 0.0461247
174 2 0.640336 0.291549 0.0536253
175 4 0.661346 0.263217 0.0611262
1234 4 0.799583 0.330843 0.0268689
1233 2 0.788193 0.320407 0.0594532
1327 4 0.549033 0.181831 0.40601
208 4 0.525678 0.353098 0.0299846
207 2 0.52639 0.380828 0.0530274
167 4 0.701397 0.382994 0.0377659
165 2 0.722677 0.401927 0.0156498
1256 4 0.868934 0.373021 0.014318
460 4 0.523444 0.60201 0.0889482
129 2 0.989978 0.124799 0.141681
805 4 0.94172 0.355913 0.0255509
1452 2 0.514842 0.604162 0.339214
804 2 0.934513 0.345558 0.0593331
415 4 0.682261 0.414138 0.038045
414 2 0.664481 0.416521 0.0693273
1350 2 0.693797 0.501743 0.0393127
1351 4 0.697209 0.479808 0.0108933
1289 4 0.997248 0.662837 0.0264171
18 3 0.541765 0.976795 0.477442
1139 4 0.574122 0.705879 0.175999
289 4 0.787851 0.537548 0.479776
507 2 0.504837 0.516112 0.0694351
1352 4 0.690384 0.523677 0.0677319
159 2 0.569836 0.126579 0.0169587
1075 4 0.803416 0.911971 0.445128
796 4 0.665706 0.622019 0.0986134
1467 2 0.712018 0.577872 0.0836171
795 2 0.656761 0.656718 0.102662
1469 4 0.726223 0.558181 0.0569547
506 4 0.783356 0.810902 0.0289892
277 4 0.574711 0.702808 0.0781736
276 2 0.593069 0.680677 0.05641
278 4 0.611426 0.658547 0.0346465
627 2 0.689029 0.968895 0.467137
343 4 0.815343 0.788649 0.0245647
1361 4 0.988021 0.69286 0.0079432
504 2 0.772222 0.787491 0.00392201
1507 4 0.877961 0.347215 0.491101
102 2 0.517681 0.540757 0.168455
342 2 0.847689 0.796727 0.0108198
1060 4 0.987632 0.805236 0.101772
1059 2 0.964931 0.780958 0.0877851
333 2 0.625736 0.981962 0.0481582
334 4 0.633967 0.994237 0.0810522
335 4 0.617504 0.969687 0.0152643
626 4 0.747342 0.984621 0.0672456
628 4 0.665634 0.943377 0.477229
406 4 0.987536 0.930093 0.0369895
405 2 0.976955 0.964527 0.0353182
1102 4 0.602625 0.133552 0.16437
1148 4 0.636476 0.0680973 0.0986129
1146 2 0.63285 0.0341456 0.110212
48 3 0.63169 0.965207 0.17324
312 2 0.709023 0.045901 0.117816
313 4 0.687022 0.0237365 0.135847
314 4 0.731023 0.0680654 0.0997843
1147 4 0.629225 0.000193835 0.121811
1082 4 0.914827 0.0286696 0.0919655
1472 4 0.883534 0.0116667 0.0871655
1101 2 0.605845 0.123344 0.129934
1103 4 0.609064 0.113135 0.0954982
266 4 0.758438 0.0913451 0.1513
265 4 0.73716 0.138533 0.101078
264 2 0.747799 0.114939 0.126189
512 4 0.94604 0.134811 0.181942
130 4 0.977664 0.117175 0.174707
823 4 0.82209 0.194749 0.140301
822 2 0.81264 0.188882 0.105998
961 4 0.970919 0.979172 0.462114
973 4 0.531983 0.324251 0.193123
972 2 0.500706 0.315034 0.177722
514 4 0.551312 0.323734 0.121064
513 2 0.579561 0.315097 0.100382
588 2 0.687682 0.311926 0.1533
1250 4 0.746628 0.310845 0.167875
589 4 0.721777 0.315776 0.142205
1248 2 0.774776 0.309286 0.145387
1235 4 0.776802 0.30997 0.0920379
1249 4 0.802923 0.307727 0.1229
209 4 0.527102 0.408557 0.0760704
248 4 0.555652 0.391802 0.0917945
246 2 0.591167 0.391229 0.0980203
806 4 0.927307 0.335204 0.0931156
553 4 0.936148 0.365298 0.111561
552 2 0.958009 0.377824 0.137361
554 4 0.979871 0.390348 0.16316
1462 4 0.541008 0.45859 0.0805264
416 4 0.646701 0.418904 0.10061
247 4 0.626682 0.390656 0.104246
1404 2 0.790268 0.425286 0.177489
1406 4 0.813071 0.400883 0.191088
535 4 0.924461 0.485597 0.14352
103 4 0.504967 0.554784 0.199148
1461 2 0.552655 0.467672 0.113424
1463 4 0.564302 0.476754 0.146322